54
Lattice="8.579999685 0.0 0.0 0.0 8.579999685 0.0 0.0 0.0 8.5799996" Properties=species:S:1:pos:R:3:REF_forces:R:3:MACE_forces:R:3 config_type=Fe34B10Si10 REF_energy=-352.89092233 MACE_energy=-353.3243905861658 pbc="T T T"
Fe       1.46495000       0.71583000       1.12880000       3.73230100      -3.41607500      -3.76209700       3.67825264      -3.50955015      -3.54326432
Fe       0.56244000       2.07917000       1.96452000      -3.31290700       4.06628900       2.54508600      -3.22408773       3.96731189       2.34823282
Fe       0.86636000       2.12990000       5.00906000     -10.85567700      -2.87102900      12.20968700     -10.93788827      -2.95318022      12.21798551
Fe       0.24697000       2.61233000       7.83061000      -0.37811800      -2.03816900      -0.08744800      -0.40821676      -1.89395622       0.08128113
Fe       0.35437000       4.66395000       8.16447000      -1.30300600       1.62250000       0.84662400      -1.33766447       1.60644158       0.77555978
Fe       0.83543000       8.00840000       3.01492000       5.54921000      -2.55787300       0.52513800       5.70565088      -2.53594407       0.38807889
Fe       2.03952000       7.84431000       6.63062000      -4.28706100       1.82495200      -1.68802900      -4.07318717       1.96199197      -1.63793006
Fe       3.34318000       0.11090000       2.96052000      -0.46571400      -0.35056300       0.37864800      -0.51932643      -0.22973380       0.46706621
Fe       3.26317000       2.11539000       1.48699000      -3.47884800      -0.03222100       0.61542300      -3.40554701      -0.29443847       0.17636864
Fe       4.14313000       2.75755000       3.31065000      -0.71378000      -2.73118300       1.93004800      -0.61668633      -2.39932154       1.86069288
Fe       2.55051000       2.67374000       7.19710000      -2.55215900      -0.93589000       1.77261600      -2.31053429      -1.14033786       1.71269339
Fe       3.61327000       2.86500000       5.46497000       1.55763200       0.20514300      -0.56676300       1.46328081       0.27685389      -0.28009063
Fe       2.62400000       4.72550000       1.39174000      -1.08585200      -1.19598700       0.59645400      -1.35175634      -1.01261655       0.69410493
Fe       2.20317000       5.21693000       3.87451000      -3.92870900      -4.38103900      -4.92199500      -3.85806229      -4.38790242      -4.97675284
Fe       3.93082000       4.37819000       8.08226000       1.07616800       0.44807800      -0.99700400       1.02325196       0.29886649      -0.93068996
Fe       2.44961000       7.01753000       1.08943000       0.32119000      -1.55635000       3.27006500       0.44520022      -1.62485878       3.26518045
Fe       3.02500000       6.15780000       5.08193000      -1.08486800       1.64126100       3.95415400      -0.63651489       1.64871106       4.05344182
Fe       5.77712000       0.44616000       0.16142000      -2.43333700       0.07175000       4.13474700      -2.47756588       0.40969279       4.21463151
Fe       5.66964000       0.14892000       2.95259000      -3.67617900       1.90971100       0.12919700      -3.64603057       1.64082188       0.32242096
Fe       5.39484000       2.66317000       1.55162000       4.08183700      -3.39937100       3.88213200       4.02948078      -3.64790355       4.03930532
Fe       5.91309000       3.40423000       8.31953000       8.90196200       5.48305700      -2.72562400       8.71113876       5.45709822      -2.70635933
Fe       4.96126000       4.63305000       3.41410000      -3.60269200      -2.00302700       2.25051900      -3.73825356      -2.21314796       2.37012438
Fe       5.11347000       6.81217000       1.78872000      -0.87770500       0.06714300      -1.61156800      -0.70486891       0.07939885      -1.56383803
Fe       5.00950000       6.45991000       8.24507000      -2.30619500      -0.19808200      -1.52355700      -2.27591660       0.01836943      -1.67708257
Fe       4.64263000       7.71190000       5.75084000       2.50156800       4.23919200      -1.55456800       2.61121650       4.27032044      -1.58768188
Fe       7.32285000       0.33022000       5.03535000      -0.99210900      -0.59745100       4.73628300      -1.02646466      -0.38351719       4.80372112
Fe       6.75330000       1.32958000       7.05071000       0.53851300       2.01290400       0.36400700       0.56348663       1.82546145       0.28401740
Fe       6.82686000       2.53028000       3.66692000      -0.08907100      -0.12987400      -0.26318300      -0.05930379      -0.21110812      -0.24006896
Fe       6.83617000       5.56618000       0.59386000       1.74434500       1.47371700      -3.32847200       1.81346991       1.62836452      -3.41760627
Fe       8.27091000       4.29855000       2.87718000       3.23308900       0.33980500       1.37352500       3.20635090       0.23106408       1.32583555
Fe       6.58774000       4.90718000       4.97515000      -1.87594500       0.58060600      -0.05143700      -2.11366764       0.61347905      -0.29591264
Fe       6.86773000       6.79187000       3.27473000       1.52763600      -2.76254700       0.67579100       1.38967403      -2.41728955       0.38995065
Fe       8.09083000       8.29691000       0.84396000      -4.18921500      -1.95965200       9.56442300      -4.18685469      -2.32397089       9.67582130
Fe       6.62133000       7.67903000       7.47205000      -3.65417600       1.51975600      -3.32990400      -3.89855702       1.24645904      -3.51564689
B        3.45077000       6.81738000       6.75435000       2.04131500      -2.79808300       3.80923700       1.92051022      -2.70717506       3.93382792
B        4.67436000       1.10514000       4.73414000       0.75036200       0.95391600      -0.52852700       0.82309593       0.87274481      -0.46315224
B        6.18153000       2.20088000       5.47737000      -4.49435700      -3.20609500      -2.27763700      -4.70320368      -3.14537702      -2.46843325
B        5.08133000       4.10197000       6.35983000       0.35152900       0.25548900      -0.65354500       0.57473615       0.33729032      -0.63577865
B        4.48663000       4.29393000       1.40792000      -0.27448100       1.04603100       0.21283300      -0.26125405       1.21745022       0.16693960
B        4.96286000       5.88068000       6.14703000       0.60492000      -1.85032800       0.29314600       0.62955672      -1.92875304       0.12901327
B        8.17242000       5.65216000       5.55863000       1.00443800       0.65677900      -0.69824300       1.01304733       0.73273532      -0.32167139
B        7.98743000       6.92663000       6.60530000       5.86774900       2.58695800      -4.05103700       5.84436665       2.49709792      -3.74643382
B        7.10769000       5.72812000       6.91109000      -2.33709700      -3.34606800       1.34633400      -2.31921062      -3.52793106       1.29455043
B        7.81665000       6.81498000       8.33858000       5.04350100      -2.41043400       0.97359300       5.16374623      -2.42455689       0.75113460
Si       0.06983000       0.14925000       7.74742000       4.12649000       2.60901100      -8.87608100       3.95220289       2.63898386      -8.85771293
Si       1.93337000       2.41223000       3.74634000      10.14534600       2.98113100     -12.18526000      10.23195428       3.10743696     -12.01902375
Si       0.75978000       6.02813000       1.69309000      -4.13401100      -0.74920300       1.02787300      -4.13479936      -0.87094101       1.03170150
Si       2.22023000       5.10313000       7.16329000      -1.58663400       1.19675500      -1.89967800      -1.78047146       1.16847491      -1.93416655
Si       3.27754000       8.17117000       8.35443000       4.04667900       4.58101600      -2.24829100       3.90146013       4.54220192      -2.46496454
Si       4.48145000       2.18337000       8.34202000      -5.72220500      -5.96162700      -4.99603400      -5.48384121      -5.82056245      -5.15355620
Si       6.36439000       4.54151000       2.12641000       2.28764700      -2.33178900       1.39384200       2.58860038      -2.23657292       1.26312996
Si       4.52267000       6.51460000       3.75633000       0.42177200       5.22743800       1.25328700       0.16157182       5.37749609       1.39706708
Si       7.68278000       0.22257000       3.11016000      -0.17295300       4.89916800      -3.86478000      -0.30877601       4.76918868      -3.98030677
Si       7.35363000       3.38410000       6.13231000       4.40786200       1.27045000       2.62604800       4.35320892       1.39883915       2.98424547
54
Lattice="8.579999685 0.0 0.0 0.0 8.579999685 0.0 0.0 0.0 8.5799996" Properties=species:S:1:pos:R:3:REF_forces:R:3:MACE_forces:R:3 config_type=Fe34B10Si10 REF_energy=-354.71875992 MACE_energy=-355.3817694395794 pbc="T T T"
Fe       0.43313000       1.19321000       2.96848000       1.47291300       2.99028000       0.61180900       1.61729624       2.98073765       0.31734117
Fe       0.91365000       1.12516000       8.09995000       2.76260400      -2.00335600       1.20968300       2.57467066      -2.13885272       1.11907712
Fe       1.17142000       2.67870000       5.23446000      -1.90323000       6.04651700       0.58026800      -1.68568990       6.28919269       0.61485475
Fe       0.60772000       3.85484000       0.87278000       2.66909500       4.89444800       4.53699300       2.66585980       5.10119552       4.24125966
Fe       1.41565000       3.44858000       3.01161000      -0.29549500       2.03729500      -0.74017400      -0.28397097       1.93123078      -0.67657196
Fe       0.04226000       2.91249000       8.09734000      -3.39897200      -2.84207300      -2.69442200      -3.10151727      -2.75237144      -2.49099556
Fe       1.33282000       7.09057000       5.22634000      -0.45239700      -1.35392500       0.92503500      -0.21494245      -1.50617203       0.82019945
Fe       2.06045000       7.92051000       0.98063000      -3.11321000      -0.30108300      -2.49280600      -3.24346300      -0.53393533      -2.32660051
Fe       2.03627000       8.24295000       3.50701000      -1.42216600       4.38122900       0.88517600      -1.52516440       4.19502832       0.55356207
Fe       0.01253000       8.02686000       7.00667000       2.58679700       0.98610200     -11.80201700       2.50589648       0.83131381     -11.94215075
Fe       3.00353000       0.57289000       6.13981000      -1.03922300       0.18357300       0.93137300      -0.71127971      -0.02285093       1.08463112
Fe       3.69949000       2.65196000       7.51811000       2.76433000      -4.34399200      -3.80269000       2.57503513      -4.15366652      -3.66557793
Fe       2.94478000       6.44154000       3.03987000       7.21319500      -3.66655800      -1.17614100       7.11961109      -3.36265499      -0.92462382
Fe       2.94309000       5.75189000       6.64956000      -6.24071800      -0.74678300       3.86021800      -6.57813998      -0.75842119       3.87807641
Fe       3.71160000       8.39321000       1.86324000       2.24845700      -0.43546600       0.28887200       2.36507156      -0.25049330       0.54154974
Fe       4.07810000       8.43915000       4.32840000       2.88035800       1.28304800      -0.49181300       2.93722600       1.48098141      -0.80627542
Fe       5.57499000       0.73262000       6.31633000      -3.12774100      -1.68249800      -0.98058200      -2.96357578      -1.73660906      -1.02821986
Fe       4.70712000       1.94493000       1.65492000      -2.04675700       4.97917500      -3.67899600      -2.14746399       4.82595333      -3.39403761
Fe       4.73401000       4.18392000       1.24748000       0.71501700       1.80608500      -0.06999200       0.70177767       1.99625980      -0.15398060
Fe       4.56687000       4.22266000       4.39618000       0.73801700       3.32591500      -2.10569900       0.59699791       3.47578384      -2.30766887
Fe       4.51224000       4.61167000       7.05684000       2.53211900      -0.41024200       0.53825400       2.98125476      -0.68690704       0.64526217
Fe       6.32808000       6.81945000       4.24288000      -3.20445400      -0.33519400      -1.28892300      -2.85082683      -0.29196214      -1.07648296
Fe       6.22240000       7.17309000       0.16230000      -3.30904600      -2.75215800       1.90373500      -3.54889891      -2.98245498       1.92874497
Fe       4.54224000       7.44382000       7.03838000       0.17895600      -5.02037800      -8.74618400       0.15586556      -5.29344870      -8.84841717
Fe       4.73272000       8.55832000       8.35561000      -0.10588400       8.96287400       6.54083400      -0.24868957       9.45116920       6.37805837
Fe       7.67285000       2.82429000       2.17742000      -2.12886900      -0.76272600      -2.06587500      -2.12331571      -0.72016489      -1.92671097
Fe       6.74071000       1.77406000       4.33655000       0.47479500       0.50025500      -0.42349800       0.13811849       0.52347195      -0.55081288
Fe       7.16362000       1.61896000       6.68131000       5.11373900       1.83737400       0.70818800       4.93730099       1.66336742       0.64046821
Fe       6.73653000       4.13840000       7.84564000       0.19062300       0.32905600       3.59274800       0.35148589       0.46205333       3.67660372
Fe       6.61248000       5.35948000       2.44590000       0.96755600      -0.77403900      -0.47053600       0.90766785      -0.76479861      -0.39974947
Fe       8.39074000       4.95678000       4.82580000       0.50677700       3.21370700       1.22596300       0.56129650       3.15317703       1.08875884
Fe       6.62275000       6.29700000       6.29237000       0.91106900      -0.58785400       1.74696000       0.85342217      -0.46509370       1.52198075
Fe       8.00875000       8.14674000       2.12563000      -1.25903800      -1.94608200      -3.37077000      -0.86112056      -1.95889711      -3.54251107
Fe       7.96861000       8.10559000       4.08816000       1.24434400       0.03207600       4.40361200       0.67968831      -0.04053898       4.63212477
B        3.14587000       1.61638000       2.59818000      -3.96044800      -1.57388800      -2.24367700      -4.09980315      -1.54712582      -2.21817487
B        4.07212000       1.93087000       3.78701000       0.55534200       0.12762300      -3.25123200       0.40781692      -0.02806720      -3.36653191
B        2.24412000       1.90783000       4.05913000      -1.80380000      -9.70850100      -5.48536600      -1.84634485      -9.88641896      -5.58249757
B        2.90130000       3.06657000       4.45062000       2.48509300       7.60479000      -1.50334300       2.78325605       7.08961155      -1.36764400
B        2.82587000       3.80138000       5.80651000       0.21675600       2.27927400       3.92227300       0.27430440       2.13450335       3.95421574
B        2.60929000       5.04297000       1.66311000       0.12617300      -0.77075900      -0.46531300      -0.03252439      -0.94706463      -0.48606726
B        2.47198000       4.95014000       4.32601000      -0.76752800      -1.31946700       0.35153300      -0.91718835      -1.13646017       0.34625432
B        2.73354000       7.81887000       7.66829000      -1.47869400      -0.15377200       0.00458000      -1.42176762      -0.13116552       0.09744375
B        5.68071000       2.28134000       7.79544000      -0.95924500       0.41857400       1.11780500      -1.05963276       0.37543499       1.11533501
B        7.77536000       3.70665000       3.76574000      -0.44877700      -1.48394500      -0.38974400      -0.49442999      -1.38634074      -0.18023497
Si       0.79518000       0.92195000       5.77957000      -1.66645900      -4.94136200      -1.10925300      -1.64324117      -5.08660573      -0.91775746
Si       0.88055000       4.20706000       6.73551000       1.15626000       3.58432200      -0.32349000       1.12778131       3.70280794      -0.28701722
Si       1.15025000       6.44729000       2.43826000      -7.77651300      -1.83655100      -1.54918700      -7.82886695      -1.65919887      -1.74840910
Si       2.82820000       3.29548000       0.50208000      -4.05499500       1.58525200       5.32597100      -4.12547527       1.39872322       5.17882899
Si       4.14031000       6.38272000       0.30005000      -2.16949800      -2.44928300       2.57761000      -2.30661461      -2.37929374       2.44571995
Si       3.68345000       6.43010000       5.01209000       3.98893100       0.98565200      -2.13453700       3.91812057       1.19408360      -2.03248834
Si       5.73751000       0.59059000       2.53265000       5.08228400      -4.90021500       2.23852200       5.19006902      -4.99228798       2.53310212
Si       4.51163000       2.47994000       5.36819000       2.60737700      -2.86786400       7.12589500       2.73071218      -2.59027092       7.30005962
Si       6.43436000       3.75222000       5.86206000       1.38008400       0.66155200      -3.64612400       1.49721026       0.68096568      -3.78020224
Si       8.06432000       7.52318000       8.55473000       2.36409700      -3.06603600      11.34847700       2.70913439      -2.74645244      11.37489959
18
Lattice="6.5 0.0 0.0 0.0 6.5 0.0 0.0 0.0 6.5" Properties=species:S:1:pos:R:3:REF_forces:R:3:MACE_forces:R:3 config_type=Fe12B3Si3 REF_energy=-113.87843945 MACE_energy=-112.46084427206546 pbc="T T T"
Fe       5.40234000       5.43492000       1.53729000      -1.39532100       2.04028400       0.71142300      -1.16664565       2.04929079       0.78933735
Fe       2.09750000       2.10361000       0.54730000       2.35673700      -0.33103000       1.27254800       2.72988330      -0.24247696       1.37230809
Fe       2.84360000       1.73250000       3.81271000       2.28004000      -1.18251600      -0.27344700       2.25752723      -1.09395779      -0.32503604
Fe       0.77541000       4.93717000       1.04317000       1.56096300      -3.83372900       1.76362000       1.54626130      -3.67049336       1.57243780
Fe       0.07665000       3.70431000       3.74351000      -0.75952900      -0.39175400      -2.23189700      -0.87717095      -0.47501218      -2.36842606
Fe       4.77171000       3.58949000       4.78220000      -1.99219600      -4.62409700       0.48420500      -1.80502251      -4.54773214       0.44605594
Fe       4.12430000       1.49867000       1.46476000       0.29771700      -2.38794700       0.28396300       0.36396369      -2.68700660       0.15477566
Fe       0.95387000       5.17746000       5.28728000      -0.57085000      -0.50160400      -1.80733600      -0.82673860      -0.67642563      -1.37362034
Fe       1.93602000       3.09888000       2.36598000      -0.08855100       0.43128300      -0.27209000      -0.24327077       0.57736623      -0.37525183
Fe       5.69037000       1.28357000       4.20026000      -0.40866000      -0.49067900       0.18976600      -0.68790003      -0.36082264       0.24548140
Fe       1.94321000       2.86141000       5.39871000      -0.55906500       0.73218900      -1.80086600      -0.68994568       1.12471234      -2.20122397
Fe       4.33122000       5.38124000       5.25469000      -0.73272900       4.56545400       1.52017900      -0.61985502       4.49695879       1.59045097
B        0.37598000       1.64060000       1.21420000      -3.21263000       2.85095800       0.76078000      -3.20373852       2.75827926       1.04444557
B        1.88110000       4.04794000       3.96741000       2.48956600       2.45119300      -0.32261600       2.51486519       2.24763215      -0.27619744
B        3.63878000       0.94242000       5.41981000      -0.01444500       0.67937600       0.95779200       0.02490031       0.78816909       1.07779522
Si       1.19380000       0.26963000       0.19686000       0.54051800       0.24528300      -1.93219100       0.60118662      -0.01306123      -1.88769723
Si       4.57825000       3.47658000       1.16117000       0.15934200       1.26766700      -0.81102600       0.21025335       1.35184416      -0.75614043
Si       1.09558000       0.76720000       2.75124000       0.04909300      -1.52033200       1.50719200      -0.12855327      -1.62726430       1.27050532
54
Lattice="8.579999685 0.0 0.0 0.0 8.579999685 0.0 0.0 0.0 8.5799996" Properties=species:S:1:pos:R:3:REF_forces:R:3:MACE_forces:R:3 config_type=Fe34B10Si10 REF_energy=-356.0869274 MACE_energy=-357.12792823601603 pbc="T T T"
Fe       0.92877000       1.08311000       2.12831000      -0.53214900      -1.15432400       0.53007800      -0.62843070      -1.15525772       0.46787125
Fe       1.12794000       0.45096000       7.37327000      -2.86345100       2.18226700       1.45805300      -2.73527667       2.07302221       1.42091836
Fe       0.91289000       3.61082000       1.96264000      -1.66570100       0.50807500      -4.76654600      -1.58444480       0.11824261      -4.49587588
Fe       0.97242000       3.25012000       3.83975000      -0.85629000      -1.23507100      -0.91491200      -1.10958109      -1.06736060      -0.62860262
Fe       1.43574000       3.84332000       5.84621000      -1.94378300      -0.72872400       4.94145300      -2.04954794      -0.52991925       4.72934235
Fe       0.45897000       5.99881000       1.32384000       1.86679900       1.45939200      -0.33976700       1.67599160       1.45862234      -0.16198892
Fe       0.05714000       6.25044000       6.01250000       0.66851500      -0.88142700       1.67028200       0.61433758      -0.75231637       1.72079868
Fe       1.87526000       7.05991000       7.27744000      -5.90957000       6.81146600       5.95768600      -5.62412532       6.98140757       5.78428169
Fe       4.21220000       0.80536000       3.81626000       0.44958900      -1.97725700       0.54591300       0.53702171      -1.81184813       0.45420753
Fe       2.64196000       0.75311000       5.88605000       0.80305000      -0.92688600      -1.50973400       0.50703935      -1.08812206      -1.52043099
Fe       2.51735000       4.27963000       7.86001000      -0.17185400       2.88247300       0.00075600      -0.18625193       3.06275570       0.06418830
Fe       2.46175000       4.76211000       4.38544000       2.27245000       6.36429500      -0.60000700       2.29602349       6.36830128      -0.48170345
Fe       3.99132000       4.46692000       6.09268000      -0.21521200      -1.96607600      -0.25853400      -0.32071907      -2.18902810      -0.13538844
Fe       4.03283000       6.20484000       2.50717000       0.32509400      -1.83048700       1.07686200       0.36403653      -1.78146748       1.10877632
Fe       2.62183000       8.12097000       1.25125000      -5.45108600      -1.04608100      -0.88869000      -5.58893792      -1.10486575      -0.67522932
Fe       2.34208000       7.49949000       3.33705000      -1.45221900       0.10179900       1.96325000      -1.30064292       0.10316994       1.58360844
Fe       4.67554000       0.98699000       8.35162000       1.97529500       0.95938300       0.07305200       1.70902238       0.85381404       0.32422567
Fe       4.68615000       2.28426000       1.60336000       6.03713100       4.39249100       1.56082500       6.16545544       4.36379947       1.11938746
Fe       4.95897000       4.28949000       0.91503000       1.24258400       3.77490300      -1.07876200       0.79340071       3.54522652      -1.17318341
Fe       5.62605000       3.84953000       3.25301000      -4.56775200       3.43217100       2.09526400      -4.71090162       3.44273726       1.92696964
Fe       5.63153000       5.70233000       4.67966000       0.04558900       0.36352900      -0.74034800       0.11877288      -0.05247492      -0.59554682
Fe       5.00954000       6.14620000       6.89198000       4.51113600      -2.60361300       1.43664400       4.56535657      -2.56787869       1.28723003
Fe       5.34723000       7.32984000       0.56425000       3.41130600      -7.55812200      -7.44238600       3.22529491      -7.13977674      -7.10249006
Fe       4.57141000       8.20633000       1.67615000      -2.51651100       6.57056000       9.11650700      -2.31345510       6.18965006       8.81421015
Fe       5.67084000       7.83697000       6.02451000      -0.02983000       3.57151200       0.33120700      -0.05421710       3.67895648       0.46078455
Fe       7.65837000       1.05332000       0.64336000       1.95813700       2.93603900      -3.62028800       1.79584225       2.80848276      -3.40913572
Fe       7.23579000       1.49494000       3.62009000       0.88838800      -1.50203300       3.00240400       1.07136716      -1.50173556       3.00156816
Fe       6.96409000       1.59543000       6.70415000       0.40175100      -2.57633900      -0.54943900       0.44062813      -2.38951883      -0.47658021
Fe       6.97946000       3.05325000       2.27831000       3.01329100      -2.85779700      -7.80747400       2.63865367      -2.88176663      -7.42164150
Fe       7.05854000       3.62734000       7.13255000       0.94483300       2.42104600       2.56329500       0.99912743       2.28090838       2.36067834
Fe       7.47490000       4.49325000       0.92243000      -3.13561000       0.06366500       0.11142200      -2.80666086       0.40686285      -0.13133977
Fe       7.76499000       5.40883000       4.05655000       3.42051700      -2.49950500       1.10150300       3.62141451      -2.66532616       1.14658268
Fe       6.91686000       6.16423000       2.38917000      -4.34160700       0.52717700      -3.24358900      -4.37116318       0.86188395      -3.25225895
Fe       7.31773000       7.39473000       4.73130000      -1.41907300       3.06948200       1.38572900      -1.45502916       2.97967430       1.32732675
B        1.63947000       5.44017000       2.85377000      -1.37965300       1.67099600      -0.34434500      -1.42912377       1.75757888      -0.53315996
B        3.47444000       1.29905000       1.69513000      -6.04542900      -7.46227000      -1.52467000      -6.12953453      -6.97638170      -1.29040877
B        2.31673000       1.42955000       3.77944000      -1.85652800      -2.14982900       3.21956500      -1.83961546      -1.94056021       3.29172483
B        3.17088000       0.01260000       8.16689000      -2.14308300      -0.12737100      -3.63430700      -2.09275365       0.13197200      -3.46652444
B        2.48887000       2.23189000       2.44876000      -1.30373000       3.96631200      -0.94871100      -0.91071016       3.68435815      -1.23084558
B        3.55016000       3.21990000       0.17024000       2.13469500      -3.52588700       0.23974700       2.16158375      -3.59355859       0.38441265
B        3.12966000       3.07291000       4.24572000      -6.99085300       0.34377600      -0.16579100      -6.83297903       0.10342610      -0.17442371
B        2.38358000       5.95301000       6.34325000       2.25901800      -8.76611800      -6.31465800       2.11612327      -9.06140094      -6.42902337
B        4.46260000       2.62992000       4.23823000       7.08507900      -1.75449200       0.40993300       6.94404935      -1.82667922       0.36167849
B        7.51183000       3.59374000       3.85724000       1.49621300      -1.20378300       3.39561400       1.49599448      -1.01046715       3.23121004
Si       0.50050000       1.66927000       5.10425000      -1.02554400      -2.67263500       2.61432900      -0.78495477      -2.97714048       2.55427614
Si       0.41923000       4.50138000       8.15701000       0.82744200      -0.47721100      -2.57541600       1.11214249      -0.44073636      -2.75640215
Si       2.90131000       4.25049000       1.93860000       2.71957100       0.04497600      -0.88170100       2.69353762       0.00027101      -1.01889771
Si       3.74353000       6.85388000       5.19884000      -1.20766000       1.80214700      -2.20114300      -1.07635506       1.93818415      -2.07274772
Si       3.54209000       6.47938000       8.21357000      -0.45014500      -1.75854100       4.24377300      -0.57610367      -2.01521034       4.41250945
Si       4.55252000       1.74669000       6.40118000       0.28733400       0.20348600      -1.69136000       0.28827887       0.23202667      -1.65446268
Si       5.87020000       3.30923000       5.41310000       1.93974000       0.55942400      -1.14043100       1.68343177       0.82204553      -1.24758127
Si       6.68392000       0.09389000       2.07850000      -2.78148600      -1.30329400       2.70552900      -2.56472056      -1.24173067       2.85528945
Si       7.30980000       7.36953000       0.08595000       4.18267400      -0.22507900      -1.67891000       4.41862463      -0.37658131      -1.75059681
Si       8.41387000       7.50606000       2.97540000       5.08859000       1.78741200      -0.88875800       5.02368352       1.89172977      -0.90758713
54
Lattice="8.579999685 0.0 0.0 0.0 8.579999685 0.0 0.0 0.0 8.5799996" Properties=species:S:1:pos:R:3:REF_forces:R:3:MACE_forces:R:3 config_type=Fe34B10Si10 REF_energy=-359.84864784 MACE_energy=-360.4601057822102 pbc="T T T"
Fe       0.39531000       2.37288000       0.87042000       3.27925500       2.43832800      -1.60261100       3.18033793       2.61827010      -1.70247440
Fe       0.75383000       1.65209000       3.11094000       1.30783500      -0.34615400      -0.09267000       1.37573790      -0.70077897       0.04492136
Fe       1.33201000       3.79282000       7.26231000      -2.40668100      -1.18131200       0.32245500      -2.53838508      -1.18201449       0.20453358
Fe       0.64436000       4.41396000       2.97573000       2.42004200      -2.26182600       0.38963900       2.45892821      -2.06241910       0.21831682
Fe       0.14751000       6.42079000       3.51005000      -3.07002100       1.32407200      -2.30638400      -3.17662199       1.33067152      -2.48584514