54
Lattice="8.579999685 0.0 0.0 0.0 8.579999685 0.0 0.0 0.0 8.5799996" Properties=species:S:1:pos:R:3:REF_forces:R:3:MACE_forces:R:3 config_type=Fe34B10Si10 REF_energy=-352.89092233 MACE_energy=-353.25245409966186 pbc="T T T"
Fe       1.46495000       0.71583000       1.12880000       3.73230100      -3.41607500      -3.76209700       3.75416080      -3.50622972      -3.70413505
Fe       0.56244000       2.07917000       1.96452000      -3.31290700       4.06628900       2.54508600      -3.37414473       4.12407302       2.42438045
Fe       0.86636000       2.12990000       5.00906000     -10.85567700      -2.87102900      12.20968700     -10.93991169      -2.93822672      12.16671008
Fe       0.24697000       2.61233000       7.83061000      -0.37811800      -2.03816900      -0.08744800      -0.31378722      -2.06081677       0.13167250
Fe       0.35437000       4.66395000       8.16447000      -1.30300600       1.62250000       0.84662400      -1.36590034       1.65496454       0.80911997
Fe       0.83543000       8.00840000       3.01492000       5.54921000      -2.55787300       0.52513800       5.53506009      -2.63863586       0.44747360
Fe       2.03952000       7.84431000       6.63062000      -4.28706100       1.82495200      -1.68802900      -4.02589136       2.02601289      -1.68589038
Fe       3.34318000       0.11090000       2.96052000      -0.46571400      -0.35056300       0.37864800      -0.46931169      -0.18479407       0.49301755
Fe       3.26317000       2.11539000       1.48699000      -3.47884800      -0.03222100       0.61542300      -3.32007190      -0.28216181       0.22675436
Fe       4.14313000       2.75755000       3.31065000      -0.71378000      -2.73118300       1.93004800      -0.67475555      -2.49168936       1.92227817
Fe       2.55051000       2.67374000       7.19710000      -2.55215900      -0.93589000       1.77261600      -2.31533067      -1.03747449       1.70391255
Fe       3.61327000       2.86500000       5.46497000       1.55763200       0.20514300      -0.56676300       1.46839323       0.32398853      -0.25841632
Fe       2.62400000       4.72550000       1.39174000      -1.08585200      -1.19598700       0.59645400      -1.37263209      -0.90798526       0.72656780
Fe       2.20317000       5.21693000       3.87451000      -3.92870900      -4.38103900      -4.92199500      -3.86288029      -4.37212126      -5.01687870
Fe       3.93082000       4.37819000       8.08226000       1.07616800       0.44807800      -0.99700400       1.05902504       0.26935595      -1.09499118
Fe       2.44961000       7.01753000       1.08943000       0.32119000      -1.55635000       3.27006500       0.46345987      -1.64533801       3.31926348
Fe       3.02500000       6.15780000       5.08193000      -1.08486800       1.64126100       3.95415400      -0.46606562       1.58080245       3.91192400
Fe       5.77712000       0.44616000       0.16142000      -2.43333700       0.07175000       4.13474700      -2.40698033       0.43657598       4.18924453
Fe       5.66964000       0.14892000       2.95259000      -3.67617900       1.90971100       0.12919700      -3.69844356       1.66399300       0.28284819
Fe       5.39484000       2.66317000       1.55162000       4.08183700      -3.39937100       3.88213200       3.94225645      -3.76571969       4.08680613
Fe       5.91309000       3.40423000       8.31953000       8.90196200       5.48305700      -2.72562400       8.70089652       5.52083969      -2.77044726
Fe       4.96126000       4.63305000       3.41410000      -3.60269200      -2.00302700       2.25051900      -3.84882664      -2.24746963       2.38863684
Fe       5.11347000       6.81217000       1.78872000      -0.87770500       0.06714300      -1.61156800      -0.65518458       0.11429645      -1.59192154
Fe       5.00950000       6.45991000       8.24507000      -2.30619500      -0.19808200      -1.52355700      -2.22689723      -0.04017163      -1.65375360
Fe       4.64263000       7.71190000       5.75084000       2.50156800       4.23919200      -1.55456800       2.57384597       4.24260589      -1.67964410
Fe       7.32285000       0.33022000       5.03535000      -0.99210900      -0.59745100       4.73628300      -1.04279276      -0.39054466       4.73853873
Fe       6.75330000       1.32958000       7.05071000       0.53851300       2.01290400       0.36400700       0.46589533       1.87834799       0.35334955
Fe       6.82686000       2.53028000       3.66692000      -0.08907100      -0.12987400      -0.26318300       0.03560595      -0.20105121      -0.24624000
Fe       6.83617000       5.56618000       0.59386000       1.74434500       1.47371700      -3.32847200       1.82473398       1.87995740      -3.43347673
Fe       8.27091000       4.29855000       2.87718000       3.23308900       0.33980500       1.37352500       3.13509548       0.19789141       1.38738053
Fe       6.58774000       4.90718000       4.97515000      -1.87594500       0.58060600      -0.05143700      -2.07048131       0.50755945      -0.63456623
Fe       6.86773000       6.79187000       3.27473000       1.52763600      -2.76254700       0.67579100       1.46272287      -2.45308702       0.34602494
Fe       8.09083000       8.29691000       0.84396000      -4.18921500      -1.95965200       9.56442300      -4.32064975      -2.31871446       9.53692750
Fe       6.62133000       7.67903000       7.47205000      -3.65417600       1.51975600      -3.32990400      -3.95311770       1.32204157      -3.46400459
B        3.45077000       6.81738000       6.75435000       2.04131500      -2.79808300       3.80923700       1.88038808      -2.76958971       3.97085910
B        4.67436000       1.10514000       4.73414000       0.75036200       0.95391600      -0.52852700       0.82939070       0.87658459      -0.40856690
B        6.18153000       2.20088000       5.47737000      -4.49435700      -3.20609500      -2.27763700      -4.67322944      -3.15348072      -2.38568799
B        5.08133000       4.10197000       6.35983000       0.35152900       0.25548900      -0.65354500       0.54403339       0.37634637      -0.62583716
B        4.48663000       4.29393000       1.40792000      -0.27448100       1.04603100       0.21283300      -0.19738398       1.18913038       0.24295827
B        4.96286000       5.88068000       6.14703000       0.60492000      -1.85032800       0.29314600       0.52490094      -1.92363869       0.16228325
B        8.17242000       5.65216000       5.55863000       1.00443800       0.65677900      -0.69824300       0.98779648       0.79784027      -0.31612261
B        7.98743000       6.92663000       6.60530000       5.86774900       2.58695800      -4.05103700       5.79238351       2.34600321      -3.75681785
B        7.10769000       5.72812000       6.91109000      -2.33709700      -3.34606800       1.34633400      -2.13030924      -3.40117018       1.69205537
B        7.81665000       6.81498000       8.33858000       5.04350100      -2.41043400       0.97359300       5.13042248      -2.66769488       0.58762581
Si       0.06983000       0.14925000       7.74742000       4.12649000       2.60901100      -8.87608100       4.05821472       2.60577666      -8.72738318
Si       1.93337000       2.41223000       3.74634000      10.14534600       2.98113100     -12.18526000      10.22335941       3.07286296     -12.00268248
Si       0.75978000       6.02813000       1.69309000      -4.13401100      -0.74920300       1.02787300      -4.14022204      -0.82676964       0.97962257
Si       2.22023000       5.10313000       7.16329000      -1.58663400       1.19675500      -1.89967800      -1.63864495       1.14294635      -1.91903998
Si       3.27754000       8.17117000       8.35443000       4.04667900       4.58101600      -2.24829100       3.93109721       4.58993687      -2.41215928
Si       4.48145000       2.18337000       8.34202000      -5.72220500      -5.96162700      -4.99603400      -5.53244323      -5.96381061      -5.11587023
Si       6.36439000       4.54151000       2.12641000       2.28764700      -2.33178900       1.39384200       2.50819736      -2.11315979       1.35257088
Si       4.52267000       6.51460000       3.75633000       0.42177200       5.22743800       1.25328700       0.12092055       5.30983422       1.33958144
Si       7.68278000       0.22257000       3.11016000      -0.17295300       4.89916800      -3.86478000      -0.26857805       4.81222472      -3.94837172
Si       7.35363000       3.38410000       6.13231000       4.40786200       1.27045000       2.62604800       4.35261155       1.43875302       2.93251693
54
Lattice="8.579999685 0.0 0.0 0.0 8.579999685 0.0 0.0 0.0 8.5799996" Properties=species:S:1:pos:R:3:REF_forces:R:3:MACE_forces:R:3 config_type=Fe34B10Si10 REF_energy=-354.71875992 MACE_energy=-355.3580428512359 pbc="T T T"
Fe       0.43313000       1.19321000       2.96848000       1.47291300       2.99028000       0.61180900       1.48405756       2.94626166       0.31954061
Fe       0.91365000       1.12516000       8.09995000       2.76260400      -2.00335600       1.20968300       2.41365728      -2.00866480       1.07472898
Fe       1.17142000       2.67870000       5.23446000      -1.90323000       6.04651700       0.58026800      -1.75748809       6.09858657       0.43715973
Fe       0.60772000       3.85484000       0.87278000       2.66909500       4.89444800       4.53699300       2.52931278       4.95358854       4.16602520
Fe       1.41565000       3.44858000       3.01161000      -0.29549500       2.03729500      -0.74017400      -0.09322593       1.91880549      -0.68904573
Fe       0.04226000       2.91249000       8.09734000      -3.39897200      -2.84207300      -2.69442200      -2.77513144      -2.84922425      -2.32240249
Fe       1.33282000       7.09057000       5.22634000      -0.45239700      -1.35392500       0.92503500      -0.22382892      -1.51288500       0.96575491
Fe       2.06045000       7.92051000       0.98063000      -3.11321000      -0.30108300      -2.49280600      -3.10680554      -0.40507055      -2.38055679
Fe       2.03627000       8.24295000       3.50701000      -1.42216600       4.38122900       0.88517600      -1.46200985       4.13187918       0.66821820
Fe       0.01253000       8.02686000       7.00667000       2.58679700       0.98610200     -11.80201700       2.44697645       0.92719795     -11.87425308
Fe       3.00353000       0.57289000       6.13981000      -1.03922300       0.18357300       0.93137300      -0.81851239       0.11222492       1.01229287
Fe       3.69949000       2.65196000       7.51811000       2.76433000      -4.34399200      -3.80269000       2.59695334      -4.11355737      -3.68354000
Fe       2.94478000       6.44154000       3.03987000       7.21319500      -3.66655800      -1.17614100       7.03726041      -3.47244058      -1.01370289
Fe       2.94309000       5.75189000       6.64956000      -6.24071800      -0.74678300       3.86021800      -6.48621051      -0.65648862       3.84661481
Fe       3.71160000       8.39321000       1.86324000       2.24845700      -0.43546600       0.28887200       2.18000949      -0.16928721       0.67690528
Fe       4.07810000       8.43915000       4.32840000       2.88035800       1.28304800      -0.49181300       2.85812826       1.37405355      -0.77081162
Fe       5.57499000       0.73262000       6.31633000      -3.12774100      -1.68249800      -0.98058200      -2.83159586      -1.65906229      -0.88397544
Fe       4.70712000       1.94493000       1.65492000      -2.04675700       4.97917500      -3.67899600      -2.12687640       4.75845453      -3.49595160
Fe       4.73401000       4.18392000       1.24748000       0.71501700       1.80608500      -0.06999200       0.69795068       2.02091261      -0.10958673
Fe       4.56687000       4.22266000       4.39618000       0.73801700       3.32591500      -2.10569900       0.47780606       3.14993337      -2.18667955
Fe       4.51224000       4.61167000       7.05684000       2.53211900      -0.41024200       0.53825400       2.97269827      -0.75250098       0.48987367
Fe       6.32808000       6.81945000       4.24288000      -3.20445400      -0.33519400      -1.28892300      -2.80285573      -0.24658288      -1.11241471
Fe       6.22240000       7.17309000       0.16230000      -3.30904600      -2.75215800       1.90373500      -3.49554548      -3.05347295       2.08912171
Fe       4.54224000       7.44382000       7.03838000       0.17895600      -5.02037800      -8.74618400       0.28061183      -5.23659999      -8.93794819
Fe       4.73272000       8.55832000       8.35561000      -0.10588400       8.96287400       6.54083400      -0.18205071       9.48228973       6.21562597
Fe       7.67285000       2.82429000       2.17742000      -2.12886900      -0.76272600      -2.06587500      -2.06295790      -0.81172375      -1.98079011
Fe       6.74071000       1.77406000       4.33655000       0.47479500       0.50025500      -0.42349800       0.07812563       0.46323832      -0.48515677
Fe       7.16362000       1.61896000       6.68131000       5.11373900       1.83737400       0.70818800       4.76813538       1.68982215       0.63284933
Fe       6.73653000       4.13840000       7.84564000       0.19062300       0.32905600       3.59274800       0.10392640       0.49804898       3.63562221
Fe       6.61248000       5.35948000       2.44590000       0.96755600      -0.77403900      -0.47053600       0.84428415      -0.68065412      -0.51044283
Fe       8.39074000       4.95678000       4.82580000       0.50677700       3.21370700       1.22596300       0.58969491       3.10349721       1.09930832
Fe       6.62275000       6.29700000       6.29237000       0.91106900      -0.58785400       1.74696000       0.79154898      -0.46723967       1.60425444
Fe       8.00875000       8.14674000       2.12563000      -1.25903800      -1.94608200      -3.37077000      -0.88789459      -1.93995487      -3.39092658
Fe       7.96861000       8.10559000       4.08816000       1.24434400       0.03207600       4.40361200       0.69456103      -0.02037491       4.49875325
B        3.14587000       1.61638000       2.59818000      -3.96044800      -1.57388800      -2.24367700      -3.96797682      -1.48764805      -2.00948855
B        4.07212000       1.93087000       3.78701000       0.55534200       0.12762300      -3.25123200       0.43409426       0.10853952      -3.22615250
B        2.24412000       1.90783000       4.05913000      -1.80380000      -9.70850100      -5.48536600      -1.84020013      -9.91038554      -5.58136012
B        2.90130000       3.06657000       4.45062000       2.48509300       7.60479000      -1.50334300       2.91612728       7.32822600      -1.49630669
B        2.82587000       3.80138000       5.80651000       0.21675600       2.27927400       3.92227300       0.34297052       2.12745061       3.84337272
B        2.60929000       5.04297000       1.66311000       0.12617300      -0.77075900      -0.46531300      -0.07088388      -0.75462783      -0.36610590
B        2.47198000       4.95014000       4.32601000      -0.76752800      -1.31946700       0.35153300      -0.80991120      -1.21524173       0.31325569
B        2.73354000       7.81887000       7.66829000      -1.47869400      -0.15377200       0.00458000      -1.53283853      -0.17874645       0.17703287
B        5.68071000       2.28134000       7.79544000      -0.95924500       0.41857400       1.11780500      -0.92684727       0.34458147       1.05945257
B        7.77536000       3.70665000       3.76574000      -0.44877700      -1.48394500      -0.38974400      -0.55139396      -1.40580468      -0.03282331
Si       0.79518000       0.92195000       5.77957000      -1.66645900      -4.94136200      -1.10925300      -1.61938611      -5.11735868      -0.94462614
Si       0.88055000       4.20706000       6.73551000       1.15626000       3.58432200      -0.32349000       1.09874562       3.77694335      -0.19859729
Si       1.15025000       6.44729000       2.43826000      -7.77651300      -1.83655100      -1.54918700      -7.90744137      -1.73785940      -1.72517274
Si       2.82820000       3.29548000       0.50208000      -4.05499500       1.58525200       5.32597100      -4.13274127       1.48691885       5.27305241
Si       4.14031000       6.38272000       0.30005000      -2.16949800      -2.44928300       2.57761000      -2.20557879      -2.50743880       2.56760409
Si       3.68345000       6.43010000       5.01209000       3.98893100       0.98565200      -2.13453700       3.85093133       1.18468324      -2.07120812
Si       5.73751000       0.59059000       2.53265000       5.08228400      -4.90021500       2.23852200       5.16692184      -4.92547621       2.49426179
Si       4.51163000       2.47994000       5.36819000       2.60737700      -2.86786400       7.12589500       2.76820173      -2.67489324       6.98068327
Si       6.43436000       3.75222000       5.86206000       1.38008400       0.66155200      -3.64612400       1.58745667       0.79787216      -3.76975644
Si       8.06432000       7.52318000       8.55473000       2.36409700      -3.06603600      11.34847700       2.66704056      -2.81274454      11.10841798
18
Lattice="6.5 0.0 0.0 0.0 6.5 0.0 0.0 0.0 6.5" Properties=species:S:1:pos:R:3:REF_forces:R:3:MACE_forces:R:3 config_type=Fe12B3Si3 REF_energy=-113.87843945 MACE_energy=-113.05513281881423 pbc="T T T"
Fe       5.40234000       5.43492000       1.53729000      -1.39532100       2.04028400       0.71142300      -1.13160137       1.96123870       0.69414542
Fe       2.09750000       2.10361000       0.54730000       2.35673700      -0.33103000       1.27254800       2.52140065      -0.08633755       1.09812279
Fe       2.84360000       1.73250000       3.81271000       2.28004000      -1.18251600      -0.27344700       2.18549091      -1.02838143      -0.15268028
Fe       0.77541000       4.93717000       1.04317000       1.56096300      -3.83372900       1.76362000       1.40382150      -3.59606588       1.48822002
Fe       0.07665000       3.70431000       3.74351000      -0.75952900      -0.39175400      -2.23189700      -1.02101820      -0.42486778      -2.28846580
Fe       4.77171000       3.58949000       4.78220000      -1.99219600      -4.62409700       0.48420500      -1.78811583      -4.59243629       0.41978110
Fe       4.12430000       1.49867000       1.46476000       0.29771700      -2.38794700       0.28396300       0.31464401      -2.65472821       0.11333565
Fe       0.95387000       5.17746000       5.28728000      -0.57085000      -0.50160400      -1.80733600      -0.94765274      -0.70390938      -1.29636053
Fe       1.93602000       3.09888000       2.36598000      -0.08855100       0.43128300      -0.27209000      -0.14321038       0.60263298      -0.40938138
Fe       5.69037000       1.28357000       4.20026000      -0.40866000      -0.49067900       0.18976600      -0.68209461      -0.26936023       0.18794724
Fe       1.94321000       2.86141000       5.39871000      -0.55906500       0.73218900      -1.80086600      -0.59878844       0.78294021      -1.84782010
Fe       4.33122000       5.38124000       5.25469000      -0.73272900       4.56545400       1.52017900      -0.69639726       4.39854417       1.53408759
B        0.37598000       1.64060000       1.21420000      -3.21263000       2.85095800       0.76078000      -3.08558698       2.71061003       0.91158502
B        1.88110000       4.04794000       3.96741000       2.48956600       2.45119300      -0.32261600       2.68795490       2.29842848      -0.37504288
B        3.63878000       0.94242000       5.41981000      -0.01444500       0.67937600       0.95779200       0.15630666       0.82515884       1.06070669
Si       1.19380000       0.26963000       0.19686000       0.54051800       0.24528300      -1.93219100       0.68451687       0.01537610      -1.91763931
Si       4.57825000       3.47658000       1.16117000       0.15934200       1.26766700      -0.81102600       0.19888617       1.42974113      -0.71526348
Si       1.09558000       0.76720000       2.75124000       0.04909300      -1.52033200       1.50719200      -0.05855585      -1.66858388       1.49472224
54
Lattice="8.579999685 0.0 0.0 0.0 8.579999685 0.0 0.0 0.0 8.5799996" Properties=species:S:1:pos:R:3:REF_forces:R:3:MACE_forces:R:3 config_type=Fe34B10Si10 REF_energy=-356.0869274 MACE_energy=-356.8612809164494 pbc="T T T"
Fe       0.92877000       1.08311000       2.12831000      -0.53214900      -1.15432400       0.53007800      -0.68652844      -1.24592152       0.40019548
Fe       1.12794000       0.45096000       7.37327000      -2.86345100       2.18226700       1.45805300      -2.86142263       2.01591857       1.46020331
Fe       0.91289000       3.61082000       1.96264000      -1.66570100       0.50807500      -4.76654600      -1.65307404       0.26757514      -4.74852348
Fe       0.97242000       3.25012000       3.83975000      -0.85629000      -1.23507100      -0.91491200      -1.08050321      -1.18731932      -0.40426012
Fe       1.43574000       3.84332000       5.84621000      -1.94378300      -0.72872400       4.94145300      -2.07000978      -0.52216629       4.69863552
Fe       0.45897000       5.99881000       1.32384000       1.86679900       1.45939200      -0.33976700       1.64234114       1.57746148      -0.18824428
Fe       0.05714000       6.25044000       6.01250000       0.66851500      -0.88142700       1.67028200       0.74461911      -0.74555568       1.79458622
Fe       1.87526000       7.05991000       7.27744000      -5.90957000       6.81146600       5.95768600      -5.76703617       7.19736937       5.93906282
Fe       4.21220000       0.80536000       3.81626000       0.44958900      -1.97725700       0.54591300       0.56553758      -1.90573146       0.43734110
Fe       2.64196000       0.75311000       5.88605000       0.80305000      -0.92688600      -1.50973400       0.61082986      -1.09601306      -1.56644292
Fe       2.51735000       4.27963000       7.86001000      -0.17185400       2.88247300       0.00075600       0.00543395       2.97034883       0.37559525
Fe       2.46175000       4.76211000       4.38544000       2.27245000       6.36429500      -0.60000700       2.24395555       6.37463794      -0.55270621
Fe       3.99132000       4.46692000       6.09268000      -0.21521200      -1.96607600      -0.25853400      -0.22894395      -2.13188451      -0.15983184
Fe       4.03283000       6.20484000       2.50717000       0.32509400      -1.83048700       1.07686200       0.44459182      -1.72207488       1.17235785
Fe       2.62183000       8.12097000       1.25125000      -5.45108600      -1.04608100      -0.88869000      -5.56278718      -1.02962128      -0.55920749
Fe       2.34208000       7.49949000       3.33705000      -1.45221900       0.10179900       1.96325000      -1.28494298       0.22715417       1.58128234
Fe       4.67554000       0.98699000       8.35162000       1.97529500       0.95938300       0.07305200       1.76535491       0.79294268       0.42052336
Fe       4.68615000       2.28426000       1.60336000       6.03713100       4.39249100       1.56082500       6.18700589       4.34481875       1.15838964
Fe       4.95897000       4.28949000       0.91503000       1.24258400       3.77490300      -1.07876200       0.64711166       3.43032262      -1.24156812
Fe       5.62605000       3.84953000       3.25301000      -4.56775200       3.43217100       2.09526400      -4.61624101       3.48665133       1.93714633
Fe       5.63153000       5.70233000       4.67966000       0.04558900       0.36352900      -0.74034800       0.09060788      -0.07303661      -0.61078861
Fe       5.00954000       6.14620000       6.89198000       4.51113600      -2.60361300       1.43664400       4.52438844      -2.42169421       1.36556409
Fe       5.34723000       7.32984000       0.56425000       3.41130600      -7.55812200      -7.44238600       3.32379254      -7.04135232      -7.26031611
Fe       4.57141000       8.20633000       1.67615000      -2.51651100       6.57056000       9.11650700      -2.59464438       6.17693072       8.69702005
Fe       5.67084000       7.83697000       6.02451000      -0.02983000       3.57151200       0.33120700      -0.09188596       3.71847729       0.40353653
Fe       7.65837000       1.05332000       0.64336000       1.95813700       2.93603900      -3.62028800       1.88809653       2.96960094      -3.49619091
Fe       7.23579000       1.49494000       3.62009000       0.88838800      -1.50203300       3.00240400       0.98084191      -1.60559283       3.04381376
Fe       6.96409000       1.59543000       6.70415000       0.40175100      -2.57633900      -0.54943900       0.53245136      -2.52479693      -0.51848620
Fe       6.97946000       3.05325000       2.27831000       3.01329100      -2.85779700      -7.80747400       2.48011268      -2.97981642      -7.20369261
Fe       7.05854000       3.62734000       7.13255000       0.94483300       2.42104600       2.56329500       1.05170348       2.44254907       2.49440028
Fe       7.47490000       4.49325000       0.92243000      -3.13561000       0.06366500       0.11142200      -2.92298642       0.41638058      -0.34898811
Fe       7.76499000       5.40883000       4.05655000       3.42051700      -2.49950500       1.10150300       3.48944226      -2.67355215       1.15182488
Fe       6.91686000       6.16423000       2.38917000      -4.34160700       0.52717700      -3.24358900      -4.28850979       0.65059049      -3.17014384
Fe       7.31773000       7.39473000       4.73130000      -1.41907300       3.06948200       1.38572900      -1.40149377       3.07555331       1.31451417
B        1.63947000       5.44017000       2.85377000      -1.37965300       1.67099600      -0.34434500      -1.43853369       1.76641620      -0.59568773
B        3.47444000       1.29905000       1.69513000      -6.04542900      -7.46227000      -1.52467000      -5.90140257      -7.26625146      -1.19041167
B        2.31673000       1.42955000       3.77944000      -1.85652800      -2.14982900       3.21956500      -1.76467794      -1.96944840       3.49908213
B        3.17088000       0.01260000       8.16689000      -2.14308300      -0.12737100      -3.63430700      -2.09097652       0.08227730      -3.58530842
B        2.48887000       2.23189000       2.44876000      -1.30373000       3.96631200      -0.94871100      -0.87030802       3.89791811      -1.24988673
B        3.55016000       3.21990000       0.17024000       2.13469500      -3.52588700       0.23974700       2.12766055      -3.42607995       0.18936612
B        3.12966000       3.07291000       4.24572000      -6.99085300       0.34377600      -0.16579100      -7.16944618       0.04228599      -0.33888992
B        2.38358000       5.95301000       6.34325000       2.25901800      -8.76611800      -6.31465800       2.25758722      -9.20396352      -6.53202106
B        4.46260000       2.62992000       4.23823000       7.08507900      -1.75449200       0.40993300       7.23106905      -1.72006029       0.46570731
B        7.51183000       3.59374000       3.85724000       1.49621300      -1.20378300       3.39561400       1.50870883      -1.11124603       3.31492310
Si       0.50050000       1.66927000       5.10425000      -1.02554400      -2.67263500       2.61432900      -0.85849249      -2.93834779       2.50316629
Si       0.41923000       4.50138000       8.15701000       0.82744200      -0.47721100      -2.57541600       1.06876140      -0.49427003      -2.80275869
Si       2.90131000       4.25049000       1.93860000       2.71957100       0.04497600      -0.88170100       2.94312175      -0.05852568      -1.13087436
Si       3.74353000       6.85388000       5.19884000      -1.20766000       1.80214700      -2.20114300      -1.09561617       1.94613533      -2.19086355
Si       3.54209000       6.47938000       8.21357000      -0.45014500      -1.75854100       4.24377300      -0.57525185      -2.00363568       4.42802236
Si       4.55252000       1.74669000       6.40118000       0.28733400       0.20348600      -1.69136000       0.28124429       0.18055144      -1.72373058
Si       5.87020000       3.30923000       5.41310000       1.93974000       0.55942400      -1.14043100       1.56271829       0.71974731      -1.17013014
Si       6.68392000       0.09389000       2.07850000      -2.78148600      -1.30329400       2.70552900      -2.46419080      -1.20796560       2.84200691
Si       7.30980000       7.36953000       0.08595000       4.18267400      -0.22507900      -1.67891000       4.12400901      -0.48646974      -1.66984884
Si       8.41387000       7.50606000       2.97540000       5.08859000       1.78741200      -0.88875800       5.01680698       2.02177866      -0.87846466
54
Lattice="8.579999685 0.0 0.0 0.0 8.579999685 0.0 0.0 0.0 8.5799996" Properties=species:S:1:pos:R:3:REF_forces:R:3:MACE_forces:R:3 config_type=Fe34B10Si10 REF_energy=-359.84864784 MACE_energy=-360.3124363679447 pbc="T T T"
Fe       0.39531000       2.37288000       0.87042000       3.27925500       2.43832800      -1.60261100       3.22211971       2.58848398      -1.73990382
Fe       0.75383000       1.65209000       3.11094000       1.30783500      -0.34615400      -0.09267000       1.25997947      -0.77912084       0.23245024
Fe       1.33201000       3.79282000       7.26231000      -2.40668100      -1.18131200       0.32245500      -2.53837812      -1.05980468       0.17300262
Fe       0.64436000       4.41396000       2.97573000       2.42004200      -2.26182600       0.38963900       2.47143435      -2.04276829       0.21821745
Fe       0.14751000       6.42079000       3.51005000      -3.07002100       1.32407200      -2.30638400      -3.10791420       1.37266653      -2.53132192