54
Lattice="8.579999685 0.0 0.0 0.0 8.579999685 0.0 0.0 0.0 8.5799996" Properties=species:S:1:pos:R:3:REF_forces:R:3:MACE_forces:R:3 config_type=Fe34B10Si10 REF_energy=-352.89092233 MACE_energy=-353.3383845390907 pbc="T T T"
Fe       1.46495000       0.71583000       1.12880000       3.73230100      -3.41607500      -3.76209700       3.68894930      -3.49006231      -3.54506102
Fe       0.56244000       2.07917000       1.96452000      -3.31290700       4.06628900       2.54508600      -3.23190250       3.95687511       2.33454291
Fe       0.86636000       2.12990000       5.00906000     -10.85567700      -2.87102900      12.20968700     -10.93273822      -2.95862609      12.21248996
Fe       0.24697000       2.61233000       7.83061000      -0.37811800      -2.03816900      -0.08744800      -0.41789884      -1.90100192       0.07922272
Fe       0.35437000       4.66395000       8.16447000      -1.30300600       1.62250000       0.84662400      -1.32848058       1.61627543       0.77742461
Fe       0.83543000       8.00840000       3.01492000       5.54921000      -2.55787300       0.52513800       5.70687343      -2.53312931       0.39451761
Fe       2.03952000       7.84431000       6.63062000      -4.28706100       1.82495200      -1.68802900      -4.07758771       1.96851808      -1.63130392
Fe       3.34318000       0.11090000       2.96052000      -0.46571400      -0.35056300       0.37864800      -0.51139316      -0.22294620       0.47564155
Fe       3.26317000       2.11539000       1.48699000      -3.47884800      -0.03222100       0.61542300      -3.41437287      -0.30596721       0.16417151
Fe       4.14313000       2.75755000       3.31065000      -0.71378000      -2.73118300       1.93004800      -0.61844819      -2.42071370       1.87033189
Fe       2.55051000       2.67374000       7.19710000      -2.55215900      -0.93589000       1.77261600      -2.30325112      -1.13708903       1.72198561
Fe       3.61327000       2.86500000       5.46497000       1.55763200       0.20514300      -0.56676300       1.47273069       0.28376652      -0.28964205
Fe       2.62400000       4.72550000       1.39174000      -1.08585200      -1.19598700       0.59645400      -1.35155689      -1.00086971       0.69488991
Fe       2.20317000       5.21693000       3.87451000      -3.92870900      -4.38103900      -4.92199500      -3.85553724      -4.37059495      -4.96356174
Fe       3.93082000       4.37819000       8.08226000       1.07616800       0.44807800      -0.99700400       1.02057596       0.30305695      -0.92903851
Fe       2.44961000       7.01753000       1.08943000       0.32119000      -1.55635000       3.27006500       0.43764096      -1.62428704       3.26413515
Fe       3.02500000       6.15780000       5.08193000      -1.08486800       1.64126100       3.95415400      -0.63288273       1.62827698       4.03150585
Fe       5.77712000       0.44616000       0.16142000      -2.43333700       0.07175000       4.13474700      -2.47580450       0.41181542       4.22300590
Fe       5.66964000       0.14892000       2.95259000      -3.67617900       1.90971100       0.12919700      -3.66742251       1.65410257       0.32311043
Fe       5.39484000       2.66317000       1.55162000       4.08183700      -3.39937100       3.88213200       4.04000630      -3.65250217       4.04128303
Fe       5.91309000       3.40423000       8.31953000       8.90196200       5.48305700      -2.72562400       8.71121015       5.44812925      -2.70925328
Fe       4.96126000       4.63305000       3.41410000      -3.60269200      -2.00302700       2.25051900      -3.72883201      -2.21977479       2.39004831
Fe       5.11347000       6.81217000       1.78872000      -0.87770500       0.06714300      -1.61156800      -0.70399483       0.07139833      -1.57657981
Fe       5.00950000       6.45991000       8.24507000      -2.30619500      -0.19808200      -1.52355700      -2.29151586       0.01034774      -1.67340969
Fe       4.64263000       7.71190000       5.75084000       2.50156800       4.23919200      -1.55456800       2.60634952       4.28068977      -1.59198578
Fe       7.32285000       0.33022000       5.03535000      -0.99210900      -0.59745100       4.73628300      -1.02612595      -0.37919171       4.80605746
Fe       6.75330000       1.32958000       7.05071000       0.53851300       2.01290400       0.36400700       0.55863622       1.82651365       0.29308247
Fe       6.82686000       2.53028000       3.66692000      -0.08907100      -0.12987400      -0.26318300      -0.05795090      -0.20763269      -0.25032025
Fe       6.83617000       5.56618000       0.59386000       1.74434500       1.47371700      -3.32847200       1.81531185       1.63567913      -3.42266446
Fe       8.27091000       4.29855000       2.87718000       3.23308900       0.33980500       1.37352500       3.20464787       0.21874869       1.32064583
Fe       6.58774000       4.90718000       4.97515000      -1.87594500       0.58060600      -0.05143700      -2.12345064       0.62528787      -0.30023641
Fe       6.86773000       6.79187000       3.27473000       1.52763600      -2.76254700       0.67579100       1.39686433      -2.42142959       0.39034359
Fe       8.09083000       8.29691000       0.84396000      -4.18921500      -1.95965200       9.56442300      -4.18638361      -2.33061330       9.67882509
Fe       6.62133000       7.67903000       7.47205000      -3.65417600       1.51975600      -3.32990400      -3.89470547       1.22500636      -3.51924352
B        3.45077000       6.81738000       6.75435000       2.04131500      -2.79808300       3.80923700       1.91276217      -2.70874425       3.94633663
B        4.67436000       1.10514000       4.73414000       0.75036200       0.95391600      -0.52852700       0.82823681       0.87714479      -0.46790511
B        6.18153000       2.20088000       5.47737000      -4.49435700      -3.20609500      -2.27763700      -4.71451063      -3.14991995      -2.47904843
B        5.08133000       4.10197000       6.35983000       0.35152900       0.25548900      -0.65354500       0.57700304       0.33116967      -0.62618064
B        4.48663000       4.29393000       1.40792000      -0.27448100       1.04603100       0.21283300      -0.26654543       1.21946582       0.15336805
B        4.96286000       5.88068000       6.14703000       0.60492000      -1.85032800       0.29314600       0.62591420      -1.92703876       0.12561876
B        8.17242000       5.65216000       5.55863000       1.00443800       0.65677900      -0.69824300       1.02597435       0.72927110      -0.33316861
B        7.98743000       6.92663000       6.60530000       5.86774900       2.58695800      -4.05103700       5.84397963       2.48450094      -3.73518030
B        7.10769000       5.72812000       6.91109000      -2.33709700      -3.34606800       1.34633400      -2.32332736      -3.50354866       1.30061510
B        7.81665000       6.81498000       8.33858000       5.04350100      -2.41043400       0.97359300       5.16775335      -2.41365009       0.75032669
Si       0.06983000       0.14925000       7.74742000       4.12649000       2.60901100      -8.87608100       3.96050485       2.64719464      -8.87149214
Si       1.93337000       2.41223000       3.74634000      10.14534600       2.98113100     -12.18526000      10.23066635       3.10849608     -12.01356403
Si       0.75978000       6.02813000       1.69309000      -4.13401100      -0.74920300       1.02787300      -4.12799005      -0.86719800       1.02744522
Si       2.22023000       5.10313000       7.16329000      -1.58663400       1.19675500      -1.89967800      -1.78327311       1.15628709      -1.93121440
Si       3.27754000       8.17117000       8.35443000       4.04667900       4.58101600      -2.24829100       3.90826770       4.54514436      -2.46227886
Si       4.48145000       2.18337000       8.34202000      -5.72220500      -5.96162700      -4.99603400      -5.48797742      -5.82307376      -5.14947483
Si       6.36439000       4.54151000       2.12641000       2.28764700      -2.33178900       1.39384200       2.59200889      -2.23673627       1.27397768
Si       4.52267000       6.51460000       3.75633000       0.42177200       5.22743800       1.25328700       0.14612408       5.37358356       1.39547136
Si       7.68278000       0.22257000       3.11016000      -0.17295300       4.89916800      -3.86478000      -0.30118779       4.77955297      -3.98151689
Si       7.35363000       3.38410000       6.13231000       4.40786200       1.27045000       2.62604800       4.35805613       1.39004257       2.99290377
54
Lattice="8.579999685 0.0 0.0 0.0 8.579999685 0.0 0.0 0.0 8.5799996" Properties=species:S:1:pos:R:3:REF_forces:R:3:MACE_forces:R:3 config_type=Fe34B10Si10 REF_energy=-354.71875992 MACE_energy=-355.4037448785096 pbc="T T T"
Fe       0.43313000       1.19321000       2.96848000       1.47291300       2.99028000       0.61180900       1.62341309       2.98317356       0.32403310
Fe       0.91365000       1.12516000       8.09995000       2.76260400      -2.00335600       1.20968300       2.56179594      -2.13201423       1.10777398
Fe       1.17142000       2.67870000       5.23446000      -1.90323000       6.04651700       0.58026800      -1.69775540       6.28952585       0.61698137
Fe       0.60772000       3.85484000       0.87278000       2.66909500       4.89444800       4.53699300       2.65098306       5.11323788       4.24680237
Fe       1.41565000       3.44858000       3.01161000      -0.29549500       2.03729500      -0.74017400      -0.27186420       1.93508912      -0.67403812
Fe       0.04226000       2.91249000       8.09734000      -3.39897200      -2.84207300      -2.69442200      -3.07292994      -2.75403525      -2.47634075
Fe       1.33282000       7.09057000       5.22634000      -0.45239700      -1.35392500       0.92503500      -0.22322791      -1.49912341       0.81775918
Fe       2.06045000       7.92051000       0.98063000      -3.11321000      -0.30108300      -2.49280600      -3.23477631      -0.53453157      -2.33399221
Fe       2.03627000       8.24295000       3.50701000      -1.42216600       4.38122900       0.88517600      -1.54588706       4.19816712       0.56166519
Fe       0.01253000       8.02686000       7.00667000       2.58679700       0.98610200     -11.80201700       2.51106198       0.82542751     -11.91169952
Fe       3.00353000       0.57289000       6.13981000      -1.03922300       0.18357300       0.93137300      -0.71753898      -0.01905049       1.08543988
Fe       3.69949000       2.65196000       7.51811000       2.76433000      -4.34399200      -3.80269000       2.57096441      -4.15188473      -3.66406589
Fe       2.94478000       6.44154000       3.03987000       7.21319500      -3.66655800      -1.17614100       7.13309072      -3.40016606      -0.93943367
Fe       2.94309000       5.75189000       6.64956000      -6.24071800      -0.74678300       3.86021800      -6.58079507      -0.75397184       3.89136133
Fe       3.71160000       8.39321000       1.86324000       2.24845700      -0.43546600       0.28887200       2.36844366      -0.25910068       0.52932454
Fe       4.07810000       8.43915000       4.32840000       2.88035800       1.28304800      -0.49181300       2.93955972       1.47875800      -0.80196524
Fe       5.57499000       0.73262000       6.31633000      -3.12774100      -1.68249800      -0.98058200      -2.96071215      -1.72840897      -1.03534515
Fe       4.70712000       1.94493000       1.65492000      -2.04675700       4.97917500      -3.67899600      -2.13676507       4.84244782      -3.40647722
Fe       4.73401000       4.18392000       1.24748000       0.71501700       1.80608500      -0.06999200       0.70431611       1.99510224      -0.14756717
Fe       4.56687000       4.22266000       4.39618000       0.73801700       3.32591500      -2.10569900       0.59789982       3.49069847      -2.30181058
Fe       4.51224000       4.61167000       7.05684000       2.53211900      -0.41024200       0.53825400       2.98955759      -0.68677317       0.64305756
Fe       6.32808000       6.81945000       4.24288000      -3.20445400      -0.33519400      -1.28892300      -2.85175288      -0.28987314      -1.07988985
Fe       6.22240000       7.17309000       0.16230000      -3.30904600      -2.75215800       1.90373500      -3.53929285      -2.98235991       1.94250502
Fe       4.54224000       7.44382000       7.03838000       0.17895600      -5.02037800      -8.74618400       0.15134295      -5.32375256      -8.85407908
Fe       4.73272000       8.55832000       8.35561000      -0.10588400       8.96287400       6.54083400      -0.24961917       9.44621320       6.38276726
Fe       7.67285000       2.82429000       2.17742000      -2.12886900      -0.76272600      -2.06587500      -2.12276620      -0.70510663      -1.91667873
Fe       6.74071000       1.77406000       4.33655000       0.47479500       0.50025500      -0.42349800       0.12917143       0.52207573      -0.54940382
Fe       7.16362000       1.61896000       6.68131000       5.11373900       1.83737400       0.70818800       4.93382094       1.65395376       0.63957474
Fe       6.73653000       4.13840000       7.84564000       0.19062300       0.32905600       3.59274800       0.35356449       0.46298322       3.68293435
Fe       6.61248000       5.35948000       2.44590000       0.96755600      -0.77403900      -0.47053600       0.90437131      -0.76094537      -0.39630029
Fe       8.39074000       4.95678000       4.82580000       0.50677700       3.21370700       1.22596300       0.55719290       3.14032369       1.07897884
Fe       6.62275000       6.29700000       6.29237000       0.91106900      -0.58785400       1.74696000       0.85095789      -0.46687294       1.52277031
Fe       8.00875000       8.14674000       2.12563000      -1.25903800      -1.94608200      -3.37077000      -0.86738458      -1.96086867      -3.53627959
Fe       7.96861000       8.10559000       4.08816000       1.24434400       0.03207600       4.40361200       0.67129035      -0.04072593       4.63173811
B        3.14587000       1.61638000       2.59818000      -3.96044800      -1.57388800      -2.24367700      -4.10286501      -1.54631300      -2.21437724
B        4.07212000       1.93087000       3.78701000       0.55534200       0.12762300      -3.25123200       0.40109769      -0.03200404      -3.36094925
B        2.24412000       1.90783000       4.05913000      -1.80380000      -9.70850100      -5.48536600      -1.85163823      -9.89350512      -5.58251302
B        2.90130000       3.06657000       4.45062000       2.48509300       7.60479000      -1.50334300       2.78649521       7.11336830      -1.38724787
B        2.82587000       3.80138000       5.80651000       0.21675600       2.27927400       3.92227300       0.26224376       2.13390457       3.95690477
B        2.60929000       5.04297000       1.66311000       0.12617300      -0.77075900      -0.46531300      -0.03145870      -0.95085088      -0.47112619
B        2.47198000       4.95014000       4.32601000      -0.76752800      -1.31946700       0.35153300      -0.91345135      -1.13983333       0.34933137
B        2.73354000       7.81887000       7.66829000      -1.47869400      -0.15377200       0.00458000      -1.42306234      -0.13235131       0.09638484
B        5.68071000       2.28134000       7.79544000      -0.95924500       0.41857400       1.11780500      -1.05442332       0.37215793       1.11622369
B        7.77536000       3.70665000       3.76574000      -0.44877700      -1.48394500      -0.38974400      -0.48715143      -1.38534609      -0.18519865
Si       0.79518000       0.92195000       5.77957000      -1.66645900      -4.94136200      -1.10925300      -1.65011340      -5.07457924      -0.92398809
Si       0.88055000       4.20706000       6.73551000       1.15626000       3.58432200      -0.32349000       1.14084323       3.69660182      -0.29520468
Si       1.15025000       6.44729000       2.43826000      -7.77651300      -1.83655100      -1.54918700      -7.84134698      -1.67032238      -1.75206777
Si       2.82820000       3.29548000       0.50208000      -4.05499500       1.58525200       5.32597100      -4.12840591       1.39299615       5.18382561
Si       4.14031000       6.38272000       0.30005000      -2.16949800      -2.44928300       2.57761000      -2.30993471      -2.36689454       2.44634938
Si       3.68345000       6.43010000       5.01209000       3.98893100       0.98565200      -2.13453700       3.92482876       1.20655053      -2.03996157
Si       5.73751000       0.59059000       2.53265000       5.08228400      -4.90021500       2.23852200       5.19164270      -4.99279759       2.52821770
Si       4.51163000       2.47994000       5.36819000       2.60737700      -2.86786400       7.12589500       2.74108748      -2.59521010       7.29474048
Si       6.43436000       3.75222000       5.86206000       1.38008400       0.66155200      -3.64612400       1.50482014       0.67781955      -3.78294551
Si       8.06432000       7.52318000       8.55473000       2.36409700      -3.06603600      11.34847700       2.71106183      -2.74100287      11.34350177
18
Lattice="6.5 0.0 0.0 0.0 6.5 0.0 0.0 0.0 6.5" Properties=species:S:1:pos:R:3:REF_forces:R:3:MACE_forces:R:3 config_type=Fe12B3Si3 REF_energy=-113.87843945 MACE_energy=-112.42670001981821 pbc="T T T"
Fe       5.40234000       5.43492000       1.53729000      -1.39532100       2.04028400       0.71142300      -1.17244223       2.05344416       0.79186356
Fe       2.09750000       2.10361000       0.54730000       2.35673700      -0.33103000       1.27254800       2.69762071      -0.25451008       1.39261236
Fe       2.84360000       1.73250000       3.81271000       2.28004000      -1.18251600      -0.27344700       2.25196172      -1.06762172      -0.33157632
Fe       0.77541000       4.93717000       1.04317000       1.56096300      -3.83372900       1.76362000       1.54550666      -3.65768434       1.57571256
Fe       0.07665000       3.70431000       3.74351000      -0.75952900      -0.39175400      -2.23189700      -0.88723497      -0.47383918      -2.34944689
Fe       4.77171000       3.58949000       4.78220000      -1.99219600      -4.62409700       0.48420500      -1.79630480      -4.53858210       0.43901475
Fe       4.12430000       1.49867000       1.46476000       0.29771700      -2.38794700       0.28396300       0.34782019      -2.68912011       0.15660885
Fe       0.95387000       5.17746000       5.28728000      -0.57085000      -0.50160400      -1.80733600      -0.83565837      -0.69149094      -1.37763882
Fe       1.93602000       3.09888000       2.36598000      -0.08855100       0.43128300      -0.27209000      -0.23274521       0.56822059      -0.37502595
Fe       5.69037000       1.28357000       4.20026000      -0.40866000      -0.49067900       0.18976600      -0.70271858      -0.36070964       0.24769834
Fe       1.94321000       2.86141000       5.39871000      -0.55906500       0.73218900      -1.80086600      -0.67138003       1.10188137      -2.19619214
Fe       4.33122000       5.38124000       5.25469000      -0.73272900       4.56545400       1.52017900      -0.63012391       4.47766444       1.59347742
B        0.37598000       1.64060000       1.21420000      -3.21263000       2.85095800       0.76078000      -3.17726705       2.76464563       1.02399554
B        1.88110000       4.04794000       3.96741000       2.48956600       2.45119300      -0.32261600       2.52484903       2.26956559      -0.29533440
B        3.63878000       0.94242000       5.41981000      -0.01444500       0.67937600       0.95779200       0.03839512       0.77612098       1.07967898
Si       1.19380000       0.26963000       0.19686000       0.54051800       0.24528300      -1.93219100       0.61169215       0.00088198      -1.88817328
Si       4.57825000       3.47658000       1.16117000       0.15934200       1.26766700      -0.81102600       0.20635299       1.35761875      -0.75791563
Si       1.09558000       0.76720000       2.75124000       0.04909300      -1.52033200       1.50719200      -0.11832343      -1.63648537       1.27064108
54
Lattice="8.579999685 0.0 0.0 0.0 8.579999685 0.0 0.0 0.0 8.5799996" Properties=species:S:1:pos:R:3:REF_forces:R:3:MACE_forces:R:3 config_type=Fe34B10Si10 REF_energy=-356.0869274 MACE_energy=-357.148656490869 pbc="T T T"
Fe       0.92877000       1.08311000       2.12831000      -0.53214900      -1.15432400       0.53007800      -0.62875658      -1.16492293       0.46018494
Fe       1.12794000       0.45096000       7.37327000      -2.86345100       2.18226700       1.45805300      -2.72655159       2.05683803       1.41425282
Fe       0.91289000       3.61082000       1.96264000      -1.66570100       0.50807500      -4.76654600      -1.57464955       0.13018099      -4.49611248
Fe       0.97242000       3.25012000       3.83975000      -0.85629000      -1.23507100      -0.91491200      -1.11910945      -1.06175663      -0.61965058
Fe       1.43574000       3.84332000       5.84621000      -1.94378300      -0.72872400       4.94145300      -2.05909410      -0.53853205       4.74271810
Fe       0.45897000       5.99881000       1.32384000       1.86679900       1.45939200      -0.33976700       1.67757548       1.46463193      -0.16053304
Fe       0.05714000       6.25044000       6.01250000       0.66851500      -0.88142700       1.67028200       0.61902668      -0.74814124       1.71350750
Fe       1.87526000       7.05991000       7.27744000      -5.90957000       6.81146600       5.95768600      -5.63318215       6.97648556       5.78203016
Fe       4.21220000       0.80536000       3.81626000       0.44958900      -1.97725700       0.54591300       0.53661781      -1.81126067       0.46215100
Fe       2.64196000       0.75311000       5.88605000       0.80305000      -0.92688600      -1.50973400       0.50098393      -1.08815448      -1.50106470
Fe       2.51735000       4.27963000       7.86001000      -0.17185400       2.88247300       0.00075600      -0.18018865       3.05931022       0.06317590
Fe       2.46175000       4.76211000       4.38544000       2.27245000       6.36429500      -0.60000700       2.31240299       6.37007173      -0.49543802
Fe       3.99132000       4.46692000       6.09268000      -0.21521200      -1.96607600      -0.25853400      -0.31977453      -2.19737079      -0.15051822
Fe       4.03283000       6.20484000       2.50717000       0.32509400      -1.83048700       1.07686200       0.37374460      -1.77056016       1.10132604
Fe       2.62183000       8.12097000       1.25125000      -5.45108600      -1.04608100      -0.88869000      -5.58349997      -1.09878636      -0.67255618
Fe       2.34208000       7.49949000       3.33705000      -1.45221900       0.10179900       1.96325000      -1.29814709       0.10720150       1.58869666
Fe       4.67554000       0.98699000       8.35162000       1.97529500       0.95938300       0.07305200       1.72078195       0.86758990       0.32020497
Fe       4.68615000       2.28426000       1.60336000       6.03713100       4.39249100       1.56082500       6.17485623       4.36407629       1.12603783
Fe       4.95897000       4.28949000       0.91503000       1.24258400       3.77490300      -1.07876200       0.79627341       3.56154303      -1.17580943
Fe       5.62605000       3.84953000       3.25301000      -4.56775200       3.43217100       2.09526400      -4.70927639       3.44255842       1.92501028
Fe       5.63153000       5.70233000       4.67966000       0.04558900       0.36352900      -0.74034800       0.10837577      -0.04482518      -0.58550907
Fe       5.00954000       6.14620000       6.89198000       4.51113600      -2.60361300       1.43664400       4.56457930      -2.54973179       1.29333695
Fe       5.34723000       7.32984000       0.56425000       3.41130600      -7.55812200      -7.44238600       3.23997499      -7.13946191      -7.11793737
Fe       4.57141000       8.20633000       1.67615000      -2.51651100       6.57056000       9.11650700      -2.34848041       6.15917739       8.82306760
Fe       5.67084000       7.83697000       6.02451000      -0.02983000       3.57151200       0.33120700      -0.05286055       3.67340480       0.45775340
Fe       7.65837000       1.05332000       0.64336000       1.95813700       2.93603900      -3.62028800       1.79964145       2.80239707      -3.41650646
Fe       7.23579000       1.49494000       3.62009000       0.88838800      -1.50203300       3.00240400       1.06812175      -1.50002183       3.00139857
Fe       6.96409000       1.59543000       6.70415000       0.40175100      -2.57633900      -0.54943900       0.43736006      -2.39437290      -0.47736676
Fe       6.97946000       3.05325000       2.27831000       3.01329100      -2.85779700      -7.80747400       2.65015033      -2.87709085      -7.40828924
Fe       7.05854000       3.62734000       7.13255000       0.94483300       2.42104600       2.56329500       0.99541402       2.28428067       2.35431510
Fe       7.47490000       4.49325000       0.92243000      -3.13561000       0.06366500       0.11142200      -2.80598617       0.40518602      -0.13060182
Fe       7.76499000       5.40883000       4.05655000       3.42051700      -2.49950500       1.10150300       3.61378652      -2.67083067       1.13336466
Fe       6.91686000       6.16423000       2.38917000      -4.34160700       0.52717700      -3.24358900      -4.37316510       0.85880068      -3.25414378
Fe       7.31773000       7.39473000       4.73130000      -1.41907300       3.06948200       1.38572900      -1.45305910       2.98271963       1.32533088
B        1.63947000       5.44017000       2.85377000      -1.37965300       1.67099600      -0.34434500      -1.43083211       1.75752288      -0.54669208
B        3.47444000       1.29905000       1.69513000      -6.04542900      -7.46227000      -1.52467000      -6.12481714      -6.98684383      -1.29699781
B        2.31673000       1.42955000       3.77944000      -1.85652800      -2.14982900       3.21956500      -1.83256183      -1.95344960       3.30623314
B        3.17088000       0.01260000       8.16689000      -2.14308300      -0.12737100      -3.63430700      -2.09645218       0.13775415      -3.47055366
B        2.48887000       2.23189000       2.44876000      -1.30373000       3.96631200      -0.94871100      -0.90012791       3.69281324      -1.24410496
B        3.55016000       3.21990000       0.17024000       2.13469500      -3.52588700       0.23974700       2.14550496      -3.58544220       0.38323499
B        3.12966000       3.07291000       4.24572000      -6.99085300       0.34377600      -0.16579100      -6.84118278       0.10116762      -0.17356548
B        2.38358000       5.95301000       6.34325000       2.25901800      -8.76611800      -6.31465800       2.11648266      -9.04833575      -6.41665149
B        4.46260000       2.62992000       4.23823000       7.08507900      -1.75449200       0.40993300       6.96320668      -1.82733152       0.34505910
B        7.51183000       3.59374000       3.85724000       1.49621300      -1.20378300       3.39561400       1.49640476      -1.01273867       3.22418406
Si       0.50050000       1.66927000       5.10425000      -1.02554400      -2.67263500       2.61432900      -0.78520807      -2.98075327       2.56514183
Si       0.41923000       4.50138000       8.15701000       0.82744200      -0.47721100      -2.57541600       1.09574381      -0.43941049      -2.75031159
Si       2.90131000       4.25049000       1.93860000       2.71957100       0.04497600      -0.88170100       2.69599288       0.00182239      -1.02768248
Si       3.74353000       6.85388000       5.19884000      -1.20766000       1.80214700      -2.20114300      -1.07578932       1.93585209      -2.07993846
Si       3.54209000       6.47938000       8.21357000      -0.45014500      -1.75854100       4.24377300      -0.57344971      -2.01949596       4.41667928
Si       4.55252000       1.74669000       6.40118000       0.28733400       0.20348600      -1.69136000       0.28210010       0.21953508      -1.64531425
Si       5.87020000       3.30923000       5.41310000       1.93974000       0.55942400      -1.14043100       1.67928538       0.82912745      -1.22990685
Si       6.68392000       0.09389000       2.07850000      -2.78148600      -1.30329400       2.70552900      -2.55687833      -1.24091938       2.85770731
Si       7.30980000       7.36953000       0.08595000       4.18267400      -0.22507900      -1.67891000       4.39981600      -0.38194494      -1.74293196
Si       8.41387000       7.50606000       2.97540000       5.08859000       1.78741200      -0.88875800       5.01887628       1.89043729      -0.89941484
54
Lattice="8.579999685 0.0 0.0 0.0 8.579999685 0.0 0.0 0.0 8.5799996" Properties=species:S:1:pos:R:3:REF_forces:R:3:MACE_forces:R:3 config_type=Fe34B10Si10 REF_energy=-359.84864784 MACE_energy=-360.5212435923171 pbc="T T T"
Fe       0.39531000       2.37288000       0.87042000       3.27925500       2.43832800      -1.60261100       3.16631703       2.62954674      -1.71143778
Fe       0.75383000       1.65209000       3.11094000       1.30783500      -0.34615400      -0.09267000       1.36636820      -0.71072983       0.04915099
Fe       1.33201000       3.79282000       7.26231000      -2.40668100      -1.18131200       0.32245500      -2.53150113      -1.18891372       0.18859801
Fe       0.64436000       4.41396000       2.97573000       2.42004200      -2.26182600       0.38963900       2.46309391      -2.06380922       0.21773759
Fe       0.14751000       6.42079000       3.51005000      -3.07002100       1.32407200      -2.30638400      -3.17177518       1.34135490      -2.49133935