54
Lattice="8.579999685 0.0 0.0 0.0 8.579999685 0.0 0.0 0.0 8.5799996" Properties=species:S:1:pos:R:3:REF_forces:R:3:MACE_forces:R:3 config_type=Fe34B10Si10 REF_energy=-352.89092233 MACE_energy=-353.298618236256 pbc="T T T"
Fe       1.46495000       0.71583000       1.12880000       3.73230100      -3.41607500      -3.76209700       3.67546217      -3.43977929      -3.54967420
Fe       0.56244000       2.07917000       1.96452000      -3.31290700       4.06628900       2.54508600      -3.34656598       4.06346412       2.35261990
Fe       0.86636000       2.12990000       5.00906000     -10.85567700      -2.87102900      12.20968700     -10.88270035      -2.94390982      12.20529113
Fe       0.24697000       2.61233000       7.83061000      -0.37811800      -2.03816900      -0.08744800      -0.36985362      -2.06791946       0.09343042
Fe       0.35437000       4.66395000       8.16447000      -1.30300600       1.62250000       0.84662400      -1.36183285       1.76169487       0.78961537
Fe       0.83543000       8.00840000       3.01492000       5.54921000      -2.55787300       0.52513800       5.59761862      -2.64414801       0.46403548
Fe       2.03952000       7.84431000       6.63062000      -4.28706100       1.82495200      -1.68802900      -4.06601094       2.03676315      -1.71364909
Fe       3.34318000       0.11090000       2.96052000      -0.46571400      -0.35056300       0.37864800      -0.49552292      -0.17203403       0.45738851
Fe       3.26317000       2.11539000       1.48699000      -3.47884800      -0.03222100       0.61542300      -3.30294356      -0.26087011       0.24675566
Fe       4.14313000       2.75755000       3.31065000      -0.71378000      -2.73118300       1.93004800      -0.70215090      -2.44420800       1.88210702
Fe       2.55051000       2.67374000       7.19710000      -2.55215900      -0.93589000       1.77261600      -2.28193549      -1.02932768       1.69892766
Fe       3.61327000       2.86500000       5.46497000       1.55763200       0.20514300      -0.56676300       1.45933796       0.30331162      -0.28531877
Fe       2.62400000       4.72550000       1.39174000      -1.08585200      -1.19598700       0.59645400      -1.34002331      -0.96731565       0.68148674
Fe       2.20317000       5.21693000       3.87451000      -3.92870900      -4.38103900      -4.92199500      -3.89566477      -4.32244435      -5.04597008
Fe       3.93082000       4.37819000       8.08226000       1.07616800       0.44807800      -0.99700400       0.96473275       0.24390703      -1.01320014
Fe       2.44961000       7.01753000       1.08943000       0.32119000      -1.55635000       3.27006500       0.44194370      -1.60870819       3.34924349
Fe       3.02500000       6.15780000       5.08193000      -1.08486800       1.64126100       3.95415400      -0.35569646       1.67603504       4.00082166
Fe       5.77712000       0.44616000       0.16142000      -2.43333700       0.07175000       4.13474700      -2.42388065       0.42070374       4.17871121
Fe       5.66964000       0.14892000       2.95259000      -3.67617900       1.90971100       0.12919700      -3.69661003       1.66288761       0.30684177
Fe       5.39484000       2.66317000       1.55162000       4.08183700      -3.39937100       3.88213200       3.98687692      -3.76725380       4.14044505
Fe       5.91309000       3.40423000       8.31953000       8.90196200       5.48305700      -2.72562400       8.72647215       5.41969771      -2.75580308
Fe       4.96126000       4.63305000       3.41410000      -3.60269200      -2.00302700       2.25051900      -3.89038346      -2.33942138       2.38877649
Fe       5.11347000       6.81217000       1.78872000      -0.87770500       0.06714300      -1.61156800      -0.72284822       0.12455677      -1.63487566
Fe       5.00950000       6.45991000       8.24507000      -2.30619500      -0.19808200      -1.52355700      -2.20741022      -0.02906844      -1.74290580
Fe       4.64263000       7.71190000       5.75084000       2.50156800       4.23919200      -1.55456800       2.55966421       4.27397004      -1.60155206
Fe       7.32285000       0.33022000       5.03535000      -0.99210900      -0.59745100       4.73628300      -0.97885753      -0.35934708       4.70558717
Fe       6.75330000       1.32958000       7.05071000       0.53851300       2.01290400       0.36400700       0.48894576       1.87213641       0.32130176
Fe       6.82686000       2.53028000       3.66692000      -0.08907100      -0.12987400      -0.26318300       0.03773108      -0.19644216      -0.21560005
Fe       6.83617000       5.56618000       0.59386000       1.74434500       1.47371700      -3.32847200       1.79130015       1.76993343      -3.48627357
Fe       8.27091000       4.29855000       2.87718000       3.23308900       0.33980500       1.37352500       3.09320872       0.18443669       1.32720231
Fe       6.58774000       4.90718000       4.97515000      -1.87594500       0.58060600      -0.05143700      -2.07740238       0.58598697      -0.51830242
Fe       6.86773000       6.79187000       3.27473000       1.52763600      -2.76254700       0.67579100       1.47264758      -2.45269281       0.36482452
Fe       8.09083000       8.29691000       0.84396000      -4.18921500      -1.95965200       9.56442300      -4.21195763      -2.25217358       9.63549710
Fe       6.62133000       7.67903000       7.47205000      -3.65417600       1.51975600      -3.32990400      -3.97209073       1.30356897      -3.47160122
B        3.45077000       6.81738000       6.75435000       2.04131500      -2.79808300       3.80923700       1.96079384      -2.86222140       3.91773978
B        4.67436000       1.10514000       4.73414000       0.75036200       0.95391600      -0.52852700       0.79822641       0.93777075      -0.42616422
B        6.18153000       2.20088000       5.47737000      -4.49435700      -3.20609500      -2.27763700      -4.63302693      -3.15989371      -2.44725168
B        5.08133000       4.10197000       6.35983000       0.35152900       0.25548900      -0.65354500       0.49252355       0.30132769      -0.57668008
B        4.48663000       4.29393000       1.40792000      -0.27448100       1.04603100       0.21283300      -0.23423501       1.22299965       0.22586508
B        4.96286000       5.88068000       6.14703000       0.60492000      -1.85032800       0.29314600       0.47053005      -1.86846627       0.12669284
B        8.17242000       5.65216000       5.55863000       1.00443800       0.65677900      -0.69824300       1.05778354       0.72741365      -0.23239613
B        7.98743000       6.92663000       6.60530000       5.86774900       2.58695800      -4.05103700       5.76841066       2.29365347      -3.59023879
B        7.10769000       5.72812000       6.91109000      -2.33709700      -3.34606800       1.34633400      -2.12525494      -3.41316542       1.51841507
B        7.81665000       6.81498000       8.33858000       5.04350100      -2.41043400       0.97359300       5.00890197      -2.59064176       0.52019885
Si       0.06983000       0.14925000       7.74742000       4.12649000       2.60901100      -8.87608100       3.98001434       2.59250324      -8.80600152
Si       1.93337000       2.41223000       3.74634000      10.14534600       2.98113100     -12.18526000      10.22650249       3.05120041     -12.01398957
Si       0.75978000       6.02813000       1.69309000      -4.13401100      -0.74920300       1.02787300      -4.13377241      -0.86327044       0.96758391
Si       2.22023000       5.10313000       7.16329000      -1.58663400       1.19675500      -1.89967800      -1.66332599       1.16782071      -1.84837913
Si       3.27754000       8.17117000       8.35443000       4.04667900       4.58101600      -2.24829100       3.92199522       4.52756216      -2.37903784
Si       4.48145000       2.18337000       8.34202000      -5.72220500      -5.96162700      -4.99603400      -5.45791237      -5.91722117      -5.15147412
Si       6.36439000       4.54151000       2.12641000       2.28764700      -2.33178900       1.39384200       2.56312198      -2.14367083       1.27406912
Si       4.52267000       6.51460000       3.75633000       0.42177200       5.22743800       1.25328700       0.12396866       5.30893815       1.34314093
Si       7.68278000       0.22257000       3.11016000      -0.17295300       4.89916800      -3.86478000      -0.23533513       4.85526054      -3.93325191
Si       7.35363000       3.38410000       6.13231000       4.40786200       1.27045000       2.62604800       4.39649028       1.42611025       2.95497515
54
Lattice="8.579999685 0.0 0.0 0.0 8.579999685 0.0 0.0 0.0 8.5799996" Properties=species:S:1:pos:R:3:REF_forces:R:3:MACE_forces:R:3 config_type=Fe34B10Si10 REF_energy=-354.71875992 MACE_energy=-355.3932049988439 pbc="T T T"
Fe       0.43313000       1.19321000       2.96848000       1.47291300       2.99028000       0.61180900       1.45447183       2.89620334       0.37185458
Fe       0.91365000       1.12516000       8.09995000       2.76260400      -2.00335600       1.20968300       2.38757593      -1.86546072       1.06915572
Fe       1.17142000       2.67870000       5.23446000      -1.90323000       6.04651700       0.58026800      -1.69863768       6.14474912       0.37294195
Fe       0.60772000       3.85484000       0.87278000       2.66909500       4.89444800       4.53699300       2.63457508       5.09970590       4.13861682
Fe       1.41565000       3.44858000       3.01161000      -0.29549500       2.03729500      -0.74017400      -0.00551051       1.92713212      -0.65556878
Fe       0.04226000       2.91249000       8.09734000      -3.39897200      -2.84207300      -2.69442200      -2.78374114      -3.00732268      -2.44463298
Fe       1.33282000       7.09057000       5.22634000      -0.45239700      -1.35392500       0.92503500      -0.23217473      -1.48106944       0.95178326
Fe       2.06045000       7.92051000       0.98063000      -3.11321000      -0.30108300      -2.49280600      -3.26919629      -0.43097352      -2.48410605
Fe       2.03627000       8.24295000       3.50701000      -1.42216600       4.38122900       0.88517600      -1.51803357       4.10645933       0.63574720
Fe       0.01253000       8.02686000       7.00667000       2.58679700       0.98610200     -11.80201700       2.46528057       0.88284889     -11.93083606
Fe       3.00353000       0.57289000       6.13981000      -1.03922300       0.18357300       0.93137300      -0.77429832       0.14179693       0.99015554
Fe       3.69949000       2.65196000       7.51811000       2.76433000      -4.34399200      -3.80269000       2.60676778      -4.12448257      -3.67338877
Fe       2.94478000       6.44154000       3.03987000       7.21319500      -3.66655800      -1.17614100       6.99025183      -3.46572283      -0.99274236
Fe       2.94309000       5.75189000       6.64956000      -6.24071800      -0.74678300       3.86021800      -6.43179428      -0.63866198       3.99117693
Fe       3.71160000       8.39321000       1.86324000       2.24845700      -0.43546600       0.28887200       2.34335679      -0.10092904       0.68142129
Fe       4.07810000       8.43915000       4.32840000       2.88035800       1.28304800      -0.49181300       2.85044586       1.31824131      -0.77493574
Fe       5.57499000       0.73262000       6.31633000      -3.12774100      -1.68249800      -0.98058200      -2.79341728      -1.72586509      -0.92418063
Fe       4.70712000       1.94493000       1.65492000      -2.04675700       4.97917500      -3.67899600      -2.13746574       4.79002055      -3.42577400
Fe       4.73401000       4.18392000       1.24748000       0.71501700       1.80608500      -0.06999200       0.71739179       1.98103077      -0.12538495
Fe       4.56687000       4.22266000       4.39618000       0.73801700       3.32591500      -2.10569900       0.51787777       3.16357707      -2.15568042
Fe       4.51224000       4.61167000       7.05684000       2.53211900      -0.41024200       0.53825400       2.96485769      -0.74120176       0.48400051
Fe       6.32808000       6.81945000       4.24288000      -3.20445400      -0.33519400      -1.28892300      -2.80408259      -0.23552335      -1.07191132
Fe       6.22240000       7.17309000       0.16230000      -3.30904600      -2.75215800       1.90373500      -3.50582313      -2.96685128       2.04322751
Fe       4.54224000       7.44382000       7.03838000       0.17895600      -5.02037800      -8.74618400       0.30398941      -5.28165569      -8.87002461
Fe       4.73272000       8.55832000       8.35561000      -0.10588400       8.96287400       6.54083400      -0.30766971       9.35739087       6.19744606
Fe       7.67285000       2.82429000       2.17742000      -2.12886900      -0.76272600      -2.06587500      -2.11903670      -0.82947075      -1.98139077
Fe       6.74071000       1.77406000       4.33655000       0.47479500       0.50025500      -0.42349800       0.07935290       0.40985667      -0.45452025
Fe       7.16362000       1.61896000       6.68131000       5.11373900       1.83737400       0.70818800       4.70716757       1.63066515       0.63675924
Fe       6.73653000       4.13840000       7.84564000       0.19062300       0.32905600       3.59274800       0.16939020       0.47333726       3.61452656
Fe       6.61248000       5.35948000       2.44590000       0.96755600      -0.77403900      -0.47053600       0.85040912      -0.66485604      -0.45557159
Fe       8.39074000       4.95678000       4.82580000       0.50677700       3.21370700       1.22596300       0.59471059       3.14066032       1.08335413
Fe       6.62275000       6.29700000       6.29237000       0.91106900      -0.58785400       1.74696000       0.82766948      -0.48593823       1.60367190
Fe       8.00875000       8.14674000       2.12563000      -1.25903800      -1.94608200      -3.37077000      -0.86195722      -1.92808005      -3.43018724
Fe       7.96861000       8.10559000       4.08816000       1.24434400       0.03207600       4.40361200       0.72018342       0.04866556       4.56434449
B        3.14587000       1.61638000       2.59818000      -3.96044800      -1.57388800      -2.24367700      -3.98831249      -1.49201466      -2.03047180
B        4.07212000       1.93087000       3.78701000       0.55534200       0.12762300      -3.25123200       0.40109050       0.17547218      -3.20194766
B        2.24412000       1.90783000       4.05913000      -1.80380000      -9.70850100      -5.48536600      -1.87155418     -10.01126544      -5.62675719
B        2.90130000       3.06657000       4.45062000       2.48509300       7.60479000      -1.50334300       2.84434493       7.25597116      -1.51397516
B        2.82587000       3.80138000       5.80651000       0.21675600       2.27927400       3.92227300       0.28120115       2.15659122       3.91367471
B        2.60929000       5.04297000       1.66311000       0.12617300      -0.77075900      -0.46531300      -0.03394235      -0.81369253      -0.44596934
B        2.47198000       4.95014000       4.32601000      -0.76752800      -1.31946700       0.35153300      -0.80893177      -1.22049292       0.41123690
B        2.73354000       7.81887000       7.66829000      -1.47869400      -0.15377200       0.00458000      -1.52789452      -0.17003057       0.21885301
B        5.68071000       2.28134000       7.79544000      -0.95924500       0.41857400       1.11780500      -0.96422995       0.37658981       1.06770273
B        7.77536000       3.70665000       3.76574000      -0.44877700      -1.48394500      -0.38974400      -0.54520597      -1.40374409      -0.07352302
Si       0.79518000       0.92195000       5.77957000      -1.66645900      -4.94136200      -1.10925300      -1.61768169      -5.02933574      -0.95704852
Si       0.88055000       4.20706000       6.73551000       1.15626000       3.58432200      -0.32349000       1.11529013       3.70479975      -0.23249829
Si       1.15025000       6.44729000       2.43826000      -7.77651300      -1.83655100      -1.54918700      -7.83440966      -1.71062048      -1.70621162
Si       2.82820000       3.29548000       0.50208000      -4.05499500       1.58525200       5.32597100      -4.07648722       1.41441559       5.24468244
Si       4.14031000       6.38272000       0.30005000      -2.16949800      -2.44928300       2.57761000      -2.29607013      -2.41388135       2.48477734
Si       3.68345000       6.43010000       5.01209000       3.98893100       0.98565200      -2.13453700       3.85542313       1.16643952      -2.14560735
Si       5.73751000       0.59059000       2.53265000       5.08228400      -4.90021500       2.23852200       5.10325221      -4.86732849       2.49798715
Si       4.51163000       2.47994000       5.36819000       2.60737700      -2.86786400       7.12589500       2.78881934      -2.61548625       7.07170446
Si       6.43436000       3.75222000       5.86206000       1.38008400       0.66155200      -3.64612400       1.51472646       0.73520045      -3.74553665
Si       8.06432000       7.52318000       8.55473000       2.36409700      -3.06603600      11.34847700       2.71768536      -2.77586333      11.18958068
18
Lattice="6.5 0.0 0.0 0.0 6.5 0.0 0.0 0.0 6.5" Properties=species:S:1:pos:R:3:REF_forces:R:3:MACE_forces:R:3 config_type=Fe12B3Si3 REF_energy=-113.87843945 MACE_energy=-113.07834922658748 pbc="T T T"
Fe       5.40234000       5.43492000       1.53729000      -1.39532100       2.04028400       0.71142300      -1.01256146       1.84659294       0.69887752
Fe       2.09750000       2.10361000       0.54730000       2.35673700      -0.33103000       1.27254800       2.54145990      -0.09077968       1.30147600
Fe       2.84360000       1.73250000       3.81271000       2.28004000      -1.18251600      -0.27344700       2.21545558      -0.98040128      -0.21095486
Fe       0.77541000       4.93717000       1.04317000       1.56096300      -3.83372900       1.76362000       1.26016912      -3.40870932       1.56946500
Fe       0.07665000       3.70431000       3.74351000      -0.75952900      -0.39175400      -2.23189700      -1.17156366      -0.48124245      -2.26432831
Fe       4.77171000       3.58949000       4.78220000      -1.99219600      -4.62409700       0.48420500      -1.65494078      -4.51133049       0.38334105
Fe       4.12430000       1.49867000       1.46476000       0.29771700      -2.38794700       0.28396300       0.28117932      -2.65526731       0.10559238
Fe       0.95387000       5.17746000       5.28728000      -0.57085000      -0.50160400      -1.80733600      -0.93791488      -0.68080024      -1.35325659
Fe       1.93602000       3.09888000       2.36598000      -0.08855100       0.43128300      -0.27209000      -0.21970393       0.50359107      -0.57790596
Fe       5.69037000       1.28357000       4.20026000      -0.40866000      -0.49067900       0.18976600      -0.81458934      -0.30807212       0.24152807
Fe       1.94321000       2.86141000       5.39871000      -0.55906500       0.73218900      -1.80086600      -0.47997625       0.68632720      -1.93323020
Fe       4.33122000       5.38124000       5.25469000      -0.73272900       4.56545400       1.52017900      -0.57045652       4.34637646       1.55017324
B        0.37598000       1.64060000       1.21420000      -3.21263000       2.85095800       0.76078000      -3.01422497       2.71082317       0.85394306
B        1.88110000       4.04794000       3.96741000       2.48956600       2.45119300      -0.32261600       2.67437875       2.40669717      -0.28405709
B        3.63878000       0.94242000       5.41981000      -0.01444500       0.67937600       0.95779200       0.13656439       0.81825805       1.10368300
Si       1.19380000       0.26963000       0.19686000       0.54051800       0.24528300      -1.93219100       0.64340721      -0.01600677      -1.85273255
Si       4.57825000       3.47658000       1.16117000       0.15934200       1.26766700      -0.81102600       0.18571574       1.48664024      -0.78221355
Si       1.09558000       0.76720000       2.75124000       0.04909300      -1.52033200       1.50719200      -0.06239822      -1.67269664       1.45059978
54
Lattice="8.579999685 0.0 0.0 0.0 8.579999685 0.0 0.0 0.0 8.5799996" Properties=species:S:1:pos:R:3:REF_forces:R:3:MACE_forces:R:3 config_type=Fe34B10Si10 REF_energy=-356.0869274 MACE_energy=-356.9620345913213 pbc="T T T"
Fe       0.92877000       1.08311000       2.12831000      -0.53214900      -1.15432400       0.53007800      -0.71083630      -1.19875859       0.40687659
Fe       1.12794000       0.45096000       7.37327000      -2.86345100       2.18226700       1.45805300      -2.83422641       1.97492665       1.44917042
Fe       0.91289000       3.61082000       1.96264000      -1.66570100       0.50807500      -4.76654600      -1.70111978       0.36134649      -4.80033353
Fe       0.97242000       3.25012000       3.83975000      -0.85629000      -1.23507100      -0.91491200      -1.08324782      -1.23238041      -0.20016442
Fe       1.43574000       3.84332000       5.84621000      -1.94378300      -0.72872400       4.94145300      -2.07866060      -0.61179814       4.69519200
Fe       0.45897000       5.99881000       1.32384000       1.86679900       1.45939200      -0.33976700       1.63783786       1.53997681      -0.16513284
Fe       0.05714000       6.25044000       6.01250000       0.66851500      -0.88142700       1.67028200       0.70767935      -0.77189393       1.73042324
Fe       1.87526000       7.05991000       7.27744000      -5.90957000       6.81146600       5.95768600      -5.75533296       7.21824377       5.98435435
Fe       4.21220000       0.80536000       3.81626000       0.44958900      -1.97725700       0.54591300       0.49939300      -1.89928219       0.43886498
Fe       2.64196000       0.75311000       5.88605000       0.80305000      -0.92688600      -1.50973400       0.52799609      -1.04569220      -1.57058828
Fe       2.51735000       4.27963000       7.86001000      -0.17185400       2.88247300       0.00075600      -0.00015395       2.95711203       0.19562205
Fe       2.46175000       4.76211000       4.38544000       2.27245000       6.36429500      -0.60000700       2.18406232       6.33919080      -0.68560940
Fe       3.99132000       4.46692000       6.09268000      -0.21521200      -1.96607600      -0.25853400      -0.17442380      -2.25149762      -0.19952816
Fe       4.03283000       6.20484000       2.50717000       0.32509400      -1.83048700       1.07686200       0.41766297      -1.76627612       1.09037339
Fe       2.62183000       8.12097000       1.25125000      -5.45108600      -1.04608100      -0.88869000      -5.51502088      -1.11693739      -0.64407378
Fe       2.34208000       7.49949000       3.33705000      -1.45221900       0.10179900       1.96325000      -1.24809187       0.18530250       1.63465671
Fe       4.67554000       0.98699000       8.35162000       1.97529500       0.95938300       0.07305200       1.66308876       0.84734759       0.33071577
Fe       4.68615000       2.28426000       1.60336000       6.03713100       4.39249100       1.56082500       6.24245665       4.32839116       1.16731110
Fe       4.95897000       4.28949000       0.91503000       1.24258400       3.77490300      -1.07876200       0.78664551       3.55471209      -1.25187606
Fe       5.62605000       3.84953000       3.25301000      -4.56775200       3.43217100       2.09526400      -4.54983290       3.54881998       1.90253734
Fe       5.63153000       5.70233000       4.67966000       0.04558900       0.36352900      -0.74034800       0.01488773      -0.05119431      -0.59854256
Fe       5.00954000       6.14620000       6.89198000       4.51113600      -2.60361300       1.43664400       4.57657891      -2.38074386       1.43586468
Fe       5.34723000       7.32984000       0.56425000       3.41130600      -7.55812200      -7.44238600       3.44998965      -7.02483809      -7.23332494
Fe       4.57141000       8.20633000       1.67615000      -2.51651100       6.57056000       9.11650700      -2.67886589       6.07381108       8.69152819
Fe       5.67084000       7.83697000       6.02451000      -0.02983000       3.57151200       0.33120700      -0.06041811       3.63141044       0.35097340
Fe       7.65837000       1.05332000       0.64336000       1.95813700       2.93603900      -3.62028800       1.88757177       2.93903543      -3.54617978
Fe       7.23579000       1.49494000       3.62009000       0.88838800      -1.50203300       3.00240400       0.95334051      -1.51660546       3.07632084
Fe       6.96409000       1.59543000       6.70415000       0.40175100      -2.57633900      -0.54943900       0.51978342      -2.54540778      -0.56189286
Fe       6.97946000       3.05325000       2.27831000       3.01329100      -2.85779700      -7.80747400       2.46249702      -2.94952971      -7.26915408
Fe       7.05854000       3.62734000       7.13255000       0.94483300       2.42104600       2.56329500       1.03513652       2.47984604       2.49872311
Fe       7.47490000       4.49325000       0.92243000      -3.13561000       0.06366500       0.11142200      -2.89709341       0.46251254      -0.21614558
Fe       7.76499000       5.40883000       4.05655000       3.42051700      -2.49950500       1.10150300       3.49750228      -2.66105199       1.11594290
Fe       6.91686000       6.16423000       2.38917000      -4.34160700       0.52717700      -3.24358900      -4.32190398       0.59850640      -3.20304637
Fe       7.31773000       7.39473000       4.73130000      -1.41907300       3.06948200       1.38572900      -1.46684896       3.02318010       1.39081243
B        1.63947000       5.44017000       2.85377000      -1.37965300       1.67099600      -0.34434500      -1.51429317       1.78122718      -0.60106057
B        3.47444000       1.29905000       1.69513000      -6.04542900      -7.46227000      -1.52467000      -5.89434456      -7.17636167      -1.13054925
B        2.31673000       1.42955000       3.77944000      -1.85652800      -2.14982900       3.21956500      -1.71675078      -1.99190887       3.44732848
B        3.17088000       0.01260000       8.16689000      -2.14308300      -0.12737100      -3.63430700      -1.99252531       0.11468893      -3.57750839
B        2.48887000       2.23189000       2.44876000      -1.30373000       3.96631200      -0.94871100      -0.89751553       3.83914842      -1.29354486
B        3.55016000       3.21990000       0.17024000       2.13469500      -3.52588700       0.23974700       2.15623654      -3.43617417       0.30228693
B        3.12966000       3.07291000       4.24572000      -6.99085300       0.34377600      -0.16579100      -7.12302328       0.13895318      -0.18766236
B        2.38358000       5.95301000       6.34325000       2.25901800      -8.76611800      -6.31465800       2.17571167      -9.23404170      -6.58436795
B        4.46260000       2.62992000       4.23823000       7.08507900      -1.75449200       0.40993300       7.19779424      -1.84284062       0.45302065
B        7.51183000       3.59374000       3.85724000       1.49621300      -1.20378300       3.39561400       1.54484897      -1.08904020       3.23727994
Si       0.50050000       1.66927000       5.10425000      -1.02554400      -2.67263500       2.61432900      -0.79643189      -2.91326244       2.60574936
Si       0.41923000       4.50138000       8.15701000       0.82744200      -0.47721100      -2.57541600       1.06359585      -0.40536263      -2.84018052
Si       2.90131000       4.25049000       1.93860000       2.71957100       0.04497600      -0.88170100       2.90330311      -0.01831431      -1.08175567
Si       3.74353000       6.85388000       5.19884000      -1.20766000       1.80214700      -2.20114300      -1.06999919       2.05749590      -2.15282093
Si       3.54209000       6.47938000       8.21357000      -0.45014500      -1.75854100       4.24377300      -0.54027680      -2.00471097       4.44616843
Si       4.55252000       1.74669000       6.40118000       0.28733400       0.20348600      -1.69136000       0.25403369       0.14395342      -1.64043493
Si       5.87020000       3.30923000       5.41310000       1.93974000       0.55942400      -1.14043100       1.57102410       0.77612869      -1.08016410
Si       6.68392000       0.09389000       2.07850000      -2.78148600      -1.30329400       2.70552900      -2.46475459      -1.24076011       2.81981644
Si       7.30980000       7.36953000       0.08595000       4.18267400      -0.22507900      -1.67891000       4.12094218      -0.51409988      -1.67766009
Si       8.41387000       7.50606000       2.97540000       5.08859000       1.78741200      -0.88875800       5.03439204       1.97549776      -0.90461145
54
Lattice="8.579999685 0.0 0.0 0.0 8.579999685 0.0 0.0 0.0 8.5799996" Properties=species:S:1:pos:R:3:REF_forces:R:3:MACE_forces:R:3 config_type=Fe34B10Si10 REF_energy=-359.84864784 MACE_energy=-360.2957202671158 pbc="T T T"
Fe       0.39531000       2.37288000       0.87042000       3.27925500       2.43832800      -1.60261100       3.21437466       2.69246315      -1.77299961
Fe       0.75383000       1.65209000       3.11094000       1.30783500      -0.34615400      -0.09267000       1.28553167      -0.86242554       0.12338571
Fe       1.33201000       3.79282000       7.26231000      -2.40668100      -1.18131200       0.32245500      -2.56206767      -1.10447632       0.24741202
Fe       0.64436000       4.41396000       2.97573000       2.42004200      -2.26182600       0.38963900       2.49281287      -2.09879205       0.28059711
Fe       0.14751000       6.42079000       3.51005000      -3.07002100       1.32407200      -2.30638400      -3.09946722       1.31581744      -2.44481913