54
Lattice="8.579999685 0.0 0.0 0.0 8.579999685 0.0 0.0 0.0 8.5799996" Properties=species:S:1:pos:R:3:REF_forces:R:3:MACE_forces:R:3 config_type=Fe34B10Si10 REF_energy=-352.89092233 MACE_energy=-352.60082016443965 pbc="T T T"
Fe       1.46495000       0.71583000       1.12880000       3.73230100      -3.41607500      -3.76209700       3.64982913      -3.39855781      -3.49063974
Fe       0.56244000       2.07917000       1.96452000      -3.31290700       4.06628900       2.54508600      -3.26154661       3.90474162       2.23878398
Fe       0.86636000       2.12990000       5.00906000     -10.85567700      -2.87102900      12.20968700     -10.89767174      -2.94507261      12.20546506
Fe       0.24697000       2.61233000       7.83061000      -0.37811800      -2.03816900      -0.08744800      -0.40979470      -1.94955636       0.05900427
Fe       0.35437000       4.66395000       8.16447000      -1.30300600       1.62250000       0.84662400      -1.36556232       1.70135233       0.80720308
Fe       0.83543000       8.00840000       3.01492000       5.54921000      -2.55787300       0.52513800       5.72705881      -2.54226455       0.43226466
Fe       2.03952000       7.84431000       6.63062000      -4.28706100       1.82495200      -1.68802900      -4.14397453       2.01806860      -1.67237548
Fe       3.34318000       0.11090000       2.96052000      -0.46571400      -0.35056300       0.37864800      -0.51858956      -0.22515763       0.45891925
Fe       3.26317000       2.11539000       1.48699000      -3.47884800      -0.03222100       0.61542300      -3.35873509      -0.24844100       0.22683911
Fe       4.14313000       2.75755000       3.31065000      -0.71378000      -2.73118300       1.93004800      -0.61423722      -2.46088299       1.91436181
Fe       2.55051000       2.67374000       7.19710000      -2.55215900      -0.93589000       1.77261600      -2.28565616      -1.06201576       1.72229220
Fe       3.61327000       2.86500000       5.46497000       1.55763200       0.20514300      -0.56676300       1.48371256       0.27102774      -0.32607430
Fe       2.62400000       4.72550000       1.39174000      -1.08585200      -1.19598700       0.59645400      -1.39907350      -0.95753831       0.71989267
Fe       2.20317000       5.21693000       3.87451000      -3.92870900      -4.38103900      -4.92199500      -3.91696335      -4.33893994      -5.02993330
Fe       3.93082000       4.37819000       8.08226000       1.07616800       0.44807800      -0.99700400       0.97967169       0.26710188      -0.98106059
Fe       2.44961000       7.01753000       1.08943000       0.32119000      -1.55635000       3.27006500       0.40135621      -1.58678990       3.31211012
Fe       3.02500000       6.15780000       5.08193000      -1.08486800       1.64126100       3.95415400      -0.44745912       1.71261311       4.08293001
Fe       5.77712000       0.44616000       0.16142000      -2.43333700       0.07175000       4.13474700      -2.44181812       0.41766437       4.20317337
Fe       5.66964000       0.14892000       2.95259000      -3.67617900       1.90971100       0.12919700      -3.71377876       1.62742041       0.31973666
Fe       5.39484000       2.66317000       1.55162000       4.08183700      -3.39937100       3.88213200       4.05851533      -3.71111609       4.08808416
Fe       5.91309000       3.40423000       8.31953000       8.90196200       5.48305700      -2.72562400       8.68087321       5.37995721      -2.66937417
Fe       4.96126000       4.63305000       3.41410000      -3.60269200      -2.00302700       2.25051900      -3.76488004      -2.26239293       2.48355993
Fe       5.11347000       6.81217000       1.78872000      -0.87770500       0.06714300      -1.61156800      -0.73404563       0.07265239      -1.61551174
Fe       5.00950000       6.45991000       8.24507000      -2.30619500      -0.19808200      -1.52355700      -2.34049778       0.02293606      -1.76976015
Fe       4.64263000       7.71190000       5.75084000       2.50156800       4.23919200      -1.55456800       2.55645409       4.37196287      -1.65806708
Fe       7.32285000       0.33022000       5.03535000      -0.99210900      -0.59745100       4.73628300      -0.99644787      -0.33747466       4.79633064
Fe       6.75330000       1.32958000       7.05071000       0.53851300       2.01290400       0.36400700       0.52977845       1.84579636       0.38975149
Fe       6.82686000       2.53028000       3.66692000      -0.08907100      -0.12987400      -0.26318300      -0.02119341      -0.17475865      -0.23113795
Fe       6.83617000       5.56618000       0.59386000       1.74434500       1.47371700      -3.32847200       1.85621632       1.68870523      -3.55038950
Fe       8.27091000       4.29855000       2.87718000       3.23308900       0.33980500       1.37352500       3.19178160       0.17257174       1.31501679
Fe       6.58774000       4.90718000       4.97515000      -1.87594500       0.58060600      -0.05143700      -2.15716314       0.66198111      -0.44127027
Fe       6.86773000       6.79187000       3.27473000       1.52763600      -2.76254700       0.67579100       1.40001393      -2.49230365       0.34752038
Fe       8.09083000       8.29691000       0.84396000      -4.18921500      -1.95965200       9.56442300      -4.09971277      -2.30007394       9.65748213
Fe       6.62133000       7.67903000       7.47205000      -3.65417600       1.51975600      -3.32990400      -4.00155119       1.23421989      -3.45934343
B        3.45077000       6.81738000       6.75435000       2.04131500      -2.79808300       3.80923700       1.95890671      -2.85045087       4.03546107
B        4.67436000       1.10514000       4.73414000       0.75036200       0.95391600      -0.52852700       0.82394760       0.95636292      -0.45543092
B        6.18153000       2.20088000       5.47737000      -4.49435700      -3.20609500      -2.27763700      -4.71729998      -3.16167677      -2.53650048
B        5.08133000       4.10197000       6.35983000       0.35152900       0.25548900      -0.65354500       0.52194338       0.28126031      -0.55355927
B        4.48663000       4.29393000       1.40792000      -0.27448100       1.04603100       0.21283300      -0.26332037       1.25418543       0.13870656
B        4.96286000       5.88068000       6.14703000       0.60492000      -1.85032800       0.29314600       0.53814325      -1.95665411       0.16308909
B        8.17242000       5.65216000       5.55863000       1.00443800       0.65677900      -0.69824300       1.08878948       0.65144633      -0.29757629
B        7.98743000       6.92663000       6.60530000       5.86774900       2.58695800      -4.05103700       5.81612094       2.33593603      -3.57899678
B        7.10769000       5.72812000       6.91109000      -2.33709700      -3.34606800       1.34633400      -2.18086814      -3.37317902       1.42312387
B        7.81665000       6.81498000       8.33858000       5.04350100      -2.41043400       0.97359300       5.12544200      -2.47982014       0.61227813
Si       0.06983000       0.14925000       7.74742000       4.12649000       2.60901100      -8.87608100       4.01293851       2.63980951      -8.86601599
Si       1.93337000       2.41223000       3.74634000      10.14534600       2.98113100     -12.18526000      10.23064781       3.04960051     -12.01738621
Si       0.75978000       6.02813000       1.69309000      -4.13401100      -0.74920300       1.02787300      -4.10590156      -0.89184620       0.97181125
Si       2.22023000       5.10313000       7.16329000      -1.58663400       1.19675500      -1.89967800      -1.75632875       1.12656776      -1.93118291
Si       3.27754000       8.17117000       8.35443000       4.04667900       4.58101600      -2.24829100       3.89987030       4.54853421      -2.40154638
Si       4.48145000       2.18337000       8.34202000      -5.72220500      -5.96162700      -4.99603400      -5.52964337      -5.82790440      -5.21087916
Si       6.36439000       4.54151000       2.12641000       2.28764700      -2.33178900       1.39384200       2.61086086      -2.21556309       1.29318659
Si       4.52267000       6.51460000       3.75633000       0.42177200       5.22743800       1.25328700       0.12030846       5.35104919       1.32837912
Si       7.68278000       0.22257000       3.11016000      -0.17295300       4.89916800      -3.86478000      -0.24651367       4.84630734      -3.97761752
Si       7.35363000       3.38410000       6.13231000       4.40786200       1.27045000       2.62604800       4.42704781       1.33859887       2.97487212
54
Lattice="8.579999685 0.0 0.0 0.0 8.579999685 0.0 0.0 0.0 8.5799996" Properties=species:S:1:pos:R:3:REF_forces:R:3:MACE_forces:R:3 config_type=Fe34B10Si10 REF_energy=-354.71875992 MACE_energy=-354.7754595065847 pbc="T T T"
Fe       0.43313000       1.19321000       2.96848000       1.47291300       2.99028000       0.61180900       1.62430613       2.98787962       0.39120801
Fe       0.91365000       1.12516000       8.09995000       2.76260400      -2.00335600       1.20968300       2.39355824      -1.89557680       1.06080414
Fe       1.17142000       2.67870000       5.23446000      -1.90323000       6.04651700       0.58026800      -1.69969376       6.25075469       0.58062083
Fe       0.60772000       3.85484000       0.87278000       2.66909500       4.89444800       4.53699300       2.63690219       5.10979165       4.16607726
Fe       1.41565000       3.44858000       3.01161000      -0.29549500       2.03729500      -0.74017400      -0.14904125       1.87487758      -0.71968470
Fe       0.04226000       2.91249000       8.09734000      -3.39897200      -2.84207300      -2.69442200      -2.85756445      -2.91003432      -2.33818153
Fe       1.33282000       7.09057000       5.22634000      -0.45239700      -1.35392500       0.92503500      -0.31536707      -1.47398528       0.89075166
Fe       2.06045000       7.92051000       0.98063000      -3.11321000      -0.30108300      -2.49280600      -3.25830374      -0.46286823      -2.34975468
Fe       2.03627000       8.24295000       3.50701000      -1.42216600       4.38122900       0.88517600      -1.59306555       4.17874017       0.57499997
Fe       0.01253000       8.02686000       7.00667000       2.58679700       0.98610200     -11.80201700       2.51697992       0.84269024     -11.98684865
Fe       3.00353000       0.57289000       6.13981000      -1.03922300       0.18357300       0.93137300      -0.75095218       0.06105170       1.07363163
Fe       3.69949000       2.65196000       7.51811000       2.76433000      -4.34399200      -3.80269000       2.59418449      -4.16761054      -3.68198435
Fe       2.94478000       6.44154000       3.03987000       7.21319500      -3.66655800      -1.17614100       7.11957047      -3.44518868      -1.03551132
Fe       2.94309000       5.75189000       6.64956000      -6.24071800      -0.74678300       3.86021800      -6.47021003      -0.71923501       3.99651955
Fe       3.71160000       8.39321000       1.86324000       2.24845700      -0.43546600       0.28887200       2.39703011      -0.22434438       0.56023713
Fe       4.07810000       8.43915000       4.32840000       2.88035800       1.28304800      -0.49181300       2.93907384       1.37866586      -0.80787179
Fe       5.57499000       0.73262000       6.31633000      -3.12774100      -1.68249800      -0.98058200      -2.78306162      -1.67425858      -0.97739916
Fe       4.70712000       1.94493000       1.65492000      -2.04675700       4.97917500      -3.67899600      -2.05532103       4.86422063      -3.51982290
Fe       4.73401000       4.18392000       1.24748000       0.71501700       1.80608500      -0.06999200       0.69872344       1.92751002      -0.12287567
Fe       4.56687000       4.22266000       4.39618000       0.73801700       3.32591500      -2.10569900       0.54583309       3.40735048      -2.25061485
Fe       4.51224000       4.61167000       7.05684000       2.53211900      -0.41024200       0.53825400       2.94756310      -0.69314039       0.58045710
Fe       6.32808000       6.81945000       4.24288000      -3.20445400      -0.33519400      -1.28892300      -2.79255591      -0.21683157      -1.06721997
Fe       6.22240000       7.17309000       0.16230000      -3.30904600      -2.75215800       1.90373500      -3.45801904      -2.99129217       2.02206767
Fe       4.54224000       7.44382000       7.03838000       0.17895600      -5.02037800      -8.74618400       0.25129787      -5.22246701      -8.71504791
Fe       4.73272000       8.55832000       8.35561000      -0.10588400       8.96287400       6.54083400      -0.29596052       9.20643557       6.09561228
Fe       7.67285000       2.82429000       2.17742000      -2.12886900      -0.76272600      -2.06587500      -2.13095649      -0.76562344      -1.91292439
Fe       6.74071000       1.77406000       4.33655000       0.47479500       0.50025500      -0.42349800       0.10319463       0.45251100      -0.48636911
Fe       7.16362000       1.61896000       6.68131000       5.11373900       1.83737400       0.70818800       4.72664831       1.58953300       0.61861476
Fe       6.73653000       4.13840000       7.84564000       0.19062300       0.32905600       3.59274800       0.27022330       0.44380115       3.61971318
Fe       6.61248000       5.35948000       2.44590000       0.96755600      -0.77403900      -0.47053600       0.86319617      -0.75699316      -0.43576526
Fe       8.39074000       4.95678000       4.82580000       0.50677700       3.21370700       1.22596300       0.57532305       3.18576760       1.09166983
Fe       6.62275000       6.29700000       6.29237000       0.91106900      -0.58785400       1.74696000       0.84807970      -0.47543632       1.55677511
Fe       8.00875000       8.14674000       2.12563000      -1.25903800      -1.94608200      -3.37077000      -0.88506841      -1.93533276      -3.50126918
Fe       7.96861000       8.10559000       4.08816000       1.24434400       0.03207600       4.40361200       0.63134883      -0.02207923       4.61757065
B        3.14587000       1.61638000       2.59818000      -3.96044800      -1.57388800      -2.24367700      -4.09916640      -1.53587584      -2.13277876
B        4.07212000       1.93087000       3.78701000       0.55534200       0.12762300      -3.25123200       0.35179924       0.08531089      -3.26739757
B        2.24412000       1.90783000       4.05913000      -1.80380000      -9.70850100      -5.48536600      -1.96025452     -10.00663775      -5.59925186
B        2.90130000       3.06657000       4.45062000       2.48509300       7.60479000      -1.50334300       2.82973299       7.32162454      -1.42392642
B        2.82587000       3.80138000       5.80651000       0.21675600       2.27927400       3.92227300       0.23578874       2.15594035       3.90791152
B        2.60929000       5.04297000       1.66311000       0.12617300      -0.77075900      -0.46531300       0.00164031      -1.00281247      -0.51052583
B        2.47198000       4.95014000       4.32601000      -0.76752800      -1.31946700       0.35153300      -0.85059112      -1.22482427       0.47458000
B        2.73354000       7.81887000       7.66829000      -1.47869400      -0.15377200       0.00458000      -1.48902710      -0.16942234       0.10912955
B        5.68071000       2.28134000       7.79544000      -0.95924500       0.41857400       1.11780500      -1.03502270       0.40076194       1.10442465
B        7.77536000       3.70665000       3.76574000      -0.44877700      -1.48394500      -0.38974400      -0.48936918      -1.43454261      -0.20039030
Si       0.79518000       0.92195000       5.77957000      -1.66645900      -4.94136200      -1.10925300      -1.63663299      -4.97969268      -0.95963250
Si       0.88055000       4.20706000       6.73551000       1.15626000       3.58432200      -0.32349000       1.13186517       3.66665905      -0.31045097
Si       1.15025000       6.44729000       2.43826000      -7.77651300      -1.83655100      -1.54918700      -7.81314240      -1.72721865      -1.75714733
Si       2.82820000       3.29548000       0.50208000      -4.05499500       1.58525200       5.32597100      -4.11643341       1.44924193       5.32933231
Si       4.14031000       6.38272000       0.30005000      -2.16949800      -2.44928300       2.57761000      -2.32100911      -2.30521542       2.45229429
Si       3.68345000       6.43010000       5.01209000       3.98893100       0.98565200      -2.13453700       3.92684953       1.22160731      -2.11153878
Si       5.73751000       0.59059000       2.53265000       5.08228400      -4.90021500       2.23852200       5.15759409      -4.90012321       2.48854319
Si       4.51163000       2.47994000       5.36819000       2.60737700      -2.86786400       7.12589500       2.82184950      -2.61607525       7.26928180
Si       6.43436000       3.75222000       5.86206000       1.38008400       0.66155200      -3.64612400       1.49264349       0.65594084      -3.75868772
Si       8.06432000       7.52318000       8.55473000       2.36409700      -3.06603600      11.34847700       2.67299004      -2.76392944      11.30804542
18
Lattice="6.5 0.0 0.0 0.0 6.5 0.0 0.0 0.0 6.5" Properties=species:S:1:pos:R:3:REF_forces:R:3:MACE_forces:R:3 config_type=Fe12B3Si3 REF_energy=-113.87843945 MACE_energy=-112.23267587614302 pbc="T T T"
Fe       5.40234000       5.43492000       1.53729000      -1.39532100       2.04028400       0.71142300      -1.15922816       1.96332591       0.75574311
Fe       2.09750000       2.10361000       0.54730000       2.35673700      -0.33103000       1.27254800       2.59679868      -0.14695639       1.49455389
Fe       2.84360000       1.73250000       3.81271000       2.28004000      -1.18251600      -0.27344700       2.20719551      -0.98648282      -0.29800577
Fe       0.77541000       4.93717000       1.04317000       1.56096300      -3.83372900       1.76362000       1.38048259      -3.56350017       1.58095731
Fe       0.07665000       3.70431000       3.74351000      -0.75952900      -0.39175400      -2.23189700      -1.11149270      -0.51553586      -2.29778788
Fe       4.77171000       3.58949000       4.78220000      -1.99219600      -4.62409700       0.48420500      -1.71598239      -4.52781246       0.38691655
Fe       4.12430000       1.49867000       1.46476000       0.29771700      -2.38794700       0.28396300       0.26873191      -2.72063042       0.16258289
Fe       0.95387000       5.17746000       5.28728000      -0.57085000      -0.50160400      -1.80733600      -0.85471427      -0.65432565      -1.30419846
Fe       1.93602000       3.09888000       2.36598000      -0.08855100       0.43128300      -0.27209000      -0.24725363       0.46283274      -0.58754875
Fe       5.69037000       1.28357000       4.20026000      -0.40866000      -0.49067900       0.18976600      -0.80879360      -0.37991070       0.24663653
Fe       1.94321000       2.86141000       5.39871000      -0.55906500       0.73218900      -1.80086600      -0.49547345       0.77121929      -2.03704708
Fe       4.33122000       5.38124000       5.25469000      -0.73272900       4.56545400       1.52017900      -0.61064234       4.37896268       1.58086113
B        0.37598000       1.64060000       1.21420000      -3.21263000       2.85095800       0.76078000      -3.05353820       2.79890213       0.83866348
B        1.88110000       4.04794000       3.96741000       2.48956600       2.45119300      -0.32261600       2.62612079       2.42829818      -0.29962583
B        3.63878000       0.94242000       5.41981000      -0.01444500       0.67937600       0.95779200       0.11810668       0.77150952       1.03090048
Si       1.19380000       0.26963000       0.19686000       0.54051800       0.24528300      -1.93219100       0.63378238       0.09620450      -1.86117922
Si       4.57825000       3.47658000       1.16117000       0.15934200       1.26766700      -0.81102600       0.23627443       1.47408595      -0.76549055
Si       1.09558000       0.76720000       2.75124000       0.04909300      -1.52033200       1.50719200      -0.01037422      -1.65018642       1.37306817
54
Lattice="8.579999685 0.0 0.0 0.0 8.579999685 0.0 0.0 0.0 8.5799996" Properties=species:S:1:pos:R:3:REF_forces:R:3:MACE_forces:R:3 config_type=Fe34B10Si10 REF_energy=-356.0869274 MACE_energy=-356.46073564523425 pbc="T T T"
Fe       0.92877000       1.08311000       2.12831000      -0.53214900      -1.15432400       0.53007800      -0.69182040      -1.19026685       0.39327101
Fe       1.12794000       0.45096000       7.37327000      -2.86345100       2.18226700       1.45805300      -2.74911168       1.96829930       1.39567280
Fe       0.91289000       3.61082000       1.96264000      -1.66570100       0.50807500      -4.76654600      -1.62922041       0.28811111      -4.73323025
Fe       0.97242000       3.25012000       3.83975000      -0.85629000      -1.23507100      -0.91491200      -1.17072911      -1.15266571      -0.37009532
Fe       1.43574000       3.84332000       5.84621000      -1.94378300      -0.72872400       4.94145300      -2.06436016      -0.59682405       4.84862990
Fe       0.45897000       5.99881000       1.32384000       1.86679900       1.45939200      -0.33976700       1.70858335       1.48296472      -0.13636946
Fe       0.05714000       6.25044000       6.01250000       0.66851500      -0.88142700       1.67028200       0.59861127      -0.75243358       1.64912887
Fe       1.87526000       7.05991000       7.27744000      -5.90957000       6.81146600       5.95768600      -5.70691031       7.10904226       5.87398929
Fe       4.21220000       0.80536000       3.81626000       0.44958900      -1.97725700       0.54591300       0.53926354      -1.88703089       0.45255964
Fe       2.64196000       0.75311000       5.88605000       0.80305000      -0.92688600      -1.50973400       0.47523386      -1.05994161      -1.45439504
Fe       2.51735000       4.27963000       7.86001000      -0.17185400       2.88247300       0.00075600      -0.14651083       2.95414554       0.04553373
Fe       2.46175000       4.76211000       4.38544000       2.27245000       6.36429500      -0.60000700       2.32441942       6.40181682      -0.59873677
Fe       3.99132000       4.46692000       6.09268000      -0.21521200      -1.96607600      -0.25853400      -0.24259050      -2.19616391      -0.19692205
Fe       4.03283000       6.20484000       2.50717000       0.32509400      -1.83048700       1.07686200       0.46964174      -1.77846488       1.04511395
Fe       2.62183000       8.12097000       1.25125000      -5.45108600      -1.04608100      -0.88869000      -5.49436765      -1.10273805      -0.68664414
Fe       2.34208000       7.49949000       3.33705000      -1.45221900       0.10179900       1.96325000      -1.32522727       0.09741481       1.67622395
Fe       4.67554000       0.98699000       8.35162000       1.97529500       0.95938300       0.07305200       1.74167178       0.96426581       0.25683984
Fe       4.68615000       2.28426000       1.60336000       6.03713100       4.39249100       1.56082500       6.26091531       4.33662556       1.03147912
Fe       4.95897000       4.28949000       0.91503000       1.24258400       3.77490300      -1.07876200       0.83967135       3.62490601      -1.18694357
Fe       5.62605000       3.84953000       3.25301000      -4.56775200       3.43217100       2.09526400      -4.54662613       3.47134718       1.85867575
Fe       5.63153000       5.70233000       4.67966000       0.04558900       0.36352900      -0.74034800       0.08344784      -0.02814169      -0.58167309
Fe       5.00954000       6.14620000       6.89198000       4.51113600      -2.60361300       1.43664400       4.54846269      -2.41900604       1.35700513
Fe       5.34723000       7.32984000       0.56425000       3.41130600      -7.55812200      -7.44238600       3.37226490      -7.05390119      -7.09819245
Fe       4.57141000       8.20633000       1.67615000      -2.51651100       6.57056000       9.11650700      -2.56869375       5.99889512       8.81402569
Fe       5.67084000       7.83697000       6.02451000      -0.02983000       3.57151200       0.33120700      -0.07519846       3.64218316       0.37501923
Fe       7.65837000       1.05332000       0.64336000       1.95813700       2.93603900      -3.62028800       1.84687207       2.83706731      -3.47711991
Fe       7.23579000       1.49494000       3.62009000       0.88838800      -1.50203300       3.00240400       1.02707688      -1.41298257       2.98134121
Fe       6.96409000       1.59543000       6.70415000       0.40175100      -2.57633900      -0.54943900       0.47366201      -2.48140093      -0.56018961
Fe       6.97946000       3.05325000       2.27831000       3.01329100      -2.85779700      -7.80747400       2.57225741      -2.97606648      -7.32172615
Fe       7.05854000       3.62734000       7.13255000       0.94483300       2.42104600       2.56329500       1.00853593       2.39877852       2.39926829
Fe       7.47490000       4.49325000       0.92243000      -3.13561000       0.06366500       0.11142200      -2.84069149       0.41800253      -0.12355546
Fe       7.76499000       5.40883000       4.05655000       3.42051700      -2.49950500       1.10150300       3.50933502      -2.62843154       1.12970485
Fe       6.91686000       6.16423000       2.38917000      -4.34160700       0.52717700      -3.24358900      -4.32220299       0.76097209      -3.23152381
Fe       7.31773000       7.39473000       4.73130000      -1.41907300       3.06948200       1.38572900      -1.41482519       2.95809728       1.37198627
B        1.63947000       5.44017000       2.85377000      -1.37965300       1.67099600      -0.34434500      -1.48476519       1.69882221      -0.59373002
B        3.47444000       1.29905000       1.69513000      -6.04542900      -7.46227000      -1.52467000      -6.07890168      -6.95688775      -1.18495875
B        2.31673000       1.42955000       3.77944000      -1.85652800      -2.14982900       3.21956500      -1.75675398      -1.95596701       3.38488107
B        3.17088000       0.01260000       8.16689000      -2.14308300      -0.12737100      -3.63430700      -2.06494028       0.12472837      -3.54610911
B        2.48887000       2.23189000       2.44876000      -1.30373000       3.96631200      -0.94871100      -0.91198672       3.81914773      -1.23790207
B        3.55016000       3.21990000       0.17024000       2.13469500      -3.52588700       0.23974700       2.10493078      -3.51493419       0.39410672
B        3.12966000       3.07291000       4.24572000      -6.99085300       0.34377600      -0.16579100      -6.97180970       0.12010292      -0.18880590
B        2.38358000       5.95301000       6.34325000       2.25901800      -8.76611800      -6.31465800       2.15200254      -9.08535961      -6.46048657
B        4.46260000       2.62992000       4.23823000       7.08507900      -1.75449200       0.40993300       7.03070859      -1.86958199       0.40185098
B        7.51183000       3.59374000       3.85724000       1.49621300      -1.20378300       3.39561400       1.52012512      -1.05163877       3.24639020
Si       0.50050000       1.66927000       5.10425000      -1.02554400      -2.67263500       2.61432900      -0.78900916      -2.96857560       2.64368898
Si       0.41923000       4.50138000       8.15701000       0.82744200      -0.47721100      -2.57541600       1.06851387      -0.41082135      -2.79556712
Si       2.90131000       4.25049000       1.93860000       2.71957100       0.04497600      -0.88170100       2.76399925      -0.01375640      -1.06577603
Si       3.74353000       6.85388000       5.19884000      -1.20766000       1.80214700      -2.20114300      -1.08323380       1.93130622      -2.11311185
Si       3.54209000       6.47938000       8.21357000      -0.45014500      -1.75854100       4.24377300      -0.60192813      -2.05975898       4.40157941
Si       4.55252000       1.74669000       6.40118000       0.28733400       0.20348600      -1.69136000       0.25769912       0.16817560      -1.59095023
Si       5.87020000       3.30923000       5.41310000       1.93974000       0.55942400      -1.14043100       1.66092626       0.81772632      -1.14226815
Si       6.68392000       0.09389000       2.07850000      -2.78148600      -1.30329400       2.70552900      -2.51907068      -1.23778455       2.81798061
Si       7.30980000       7.36953000       0.08595000       4.18267400      -0.22507900      -1.67891000       4.29562709      -0.43990290      -1.73981299
Si       8.41387000       7.50606000       2.97540000       5.08859000       1.78741200      -0.88875800       4.99702669       1.88848456      -0.82915063
54
Lattice="8.579999685 0.0 0.0 0.0 8.579999685 0.0 0.0 0.0 8.5799996" Properties=species:S:1:pos:R:3:REF_forces:R:3:MACE_forces:R:3 config_type=Fe34B10Si10 REF_energy=-359.84864784 MACE_energy=-359.8741406947911 pbc="T T T"
Fe       0.39531000       2.37288000       0.87042000       3.27925500       2.43832800      -1.60261100       3.17044582       2.70115402      -1.77387573
Fe       0.75383000       1.65209000       3.11094000       1.30783500      -0.34615400      -0.09267000       1.28523638      -0.80755048       0.06162012
Fe       1.33201000       3.79282000       7.26231000      -2.40668100      -1.18131200       0.32245500      -2.46074891      -1.15584317       0.23799977
Fe       0.64436000       4.41396000       2.97573000       2.42004200      -2.26182600       0.38963900       2.47504788      -2.05014855       0.24915335
Fe       0.14751000       6.42079000       3.51005000      -3.07002100       1.32407200      -2.30638400      -3.09401501       1.31010458      -2.41563676