54
Lattice="8.579999685 0.0 0.0 0.0 8.579999685 0.0 0.0 0.0 8.5799996" Properties=species:S:1:pos:R:3:REF_forces:R:3:MACE_forces:R:3 config_type=Fe34B10Si10 REF_energy=-352.89092233 MACE_energy=-352.9260237839513 pbc="T T T"
Fe       1.46495000       0.71583000       1.12880000       3.73230100      -3.41607500      -3.76209700       3.76928468      -3.54226739      -3.73589389
Fe       0.56244000       2.07917000       1.96452000      -3.31290700       4.06628900       2.54508600      -3.39480197       4.14852801       2.43218845
Fe       0.86636000       2.12990000       5.00906000     -10.85567700      -2.87102900      12.20968700     -10.93475163      -2.94230202      12.15334670
Fe       0.24697000       2.61233000       7.83061000      -0.37811800      -2.03816900      -0.08744800      -0.30621870      -2.05797835       0.14564114
Fe       0.35437000       4.66395000       8.16447000      -1.30300600       1.62250000       0.84662400      -1.36496778       1.63243867       0.81416968
Fe       0.83543000       8.00840000       3.01492000       5.54921000      -2.55787300       0.52513800       5.53184544      -2.63184963       0.45317786
Fe       2.03952000       7.84431000       6.63062000      -4.28706100       1.82495200      -1.68802900      -4.03434783       2.02063533      -1.69087737
Fe       3.34318000       0.11090000       2.96052000      -0.46571400      -0.35056300       0.37864800      -0.46299076      -0.18625080       0.49842991
Fe       3.26317000       2.11539000       1.48699000      -3.47884800      -0.03222100       0.61542300      -3.32861981      -0.28860381       0.23146427
Fe       4.14313000       2.75755000       3.31065000      -0.71378000      -2.73118300       1.93004800      -0.66401261      -2.50140030       1.92938312
Fe       2.55051000       2.67374000       7.19710000      -2.55215900      -0.93589000       1.77261600      -2.31528819      -1.03772830       1.71590307
Fe       3.61327000       2.86500000       5.46497000       1.55763200       0.20514300      -0.56676300       1.47275377       0.31765144      -0.26850714
Fe       2.62400000       4.72550000       1.39174000      -1.08585200      -1.19598700       0.59645400      -1.37601829      -0.90324338       0.73478528
Fe       2.20317000       5.21693000       3.87451000      -3.92870900      -4.38103900      -4.92199500      -3.89944349      -4.40692506      -5.06496868
Fe       3.93082000       4.37819000       8.08226000       1.07616800       0.44807800      -0.99700400       1.07606275       0.26479779      -1.09520698
Fe       2.44961000       7.01753000       1.08943000       0.32119000      -1.55635000       3.27006500       0.47069640      -1.64825448       3.31288727
Fe       3.02500000       6.15780000       5.08193000      -1.08486800       1.64126100       3.95415400      -0.45849510       1.61921618       3.96705600
Fe       5.77712000       0.44616000       0.16142000      -2.43333700       0.07175000       4.13474700      -2.39447274       0.43111630       4.19063643
Fe       5.66964000       0.14892000       2.95259000      -3.67617900       1.90971100       0.12919700      -3.70005433       1.66370406       0.28198927
Fe       5.39484000       2.66317000       1.55162000       4.08183700      -3.39937100       3.88213200       3.92277239      -3.77003597       4.08835169
Fe       5.91309000       3.40423000       8.31953000       8.90196200       5.48305700      -2.72562400       8.70912159       5.53078317      -2.78750450
Fe       4.96126000       4.63305000       3.41410000      -3.60269200      -2.00302700       2.25051900      -3.83932792      -2.23474719       2.38708586
Fe       5.11347000       6.81217000       1.78872000      -0.87770500       0.06714300      -1.61156800      -0.64692777       0.10868612      -1.60461844
Fe       5.00950000       6.45991000       8.24507000      -2.30619500      -0.19808200      -1.52355700      -2.24059475      -0.05272918      -1.63491493
Fe       4.64263000       7.71190000       5.75084000       2.50156800       4.23919200      -1.55456800       2.57509589       4.24389198      -1.68676920
Fe       7.32285000       0.33022000       5.03535000      -0.99210900      -0.59745100       4.73628300      -1.04134272      -0.38258173       4.73378605
Fe       6.75330000       1.32958000       7.05071000       0.53851300       2.01290400       0.36400700       0.45477989       1.87107565       0.35587602
Fe       6.82686000       2.53028000       3.66692000      -0.08907100      -0.12987400      -0.26318300       0.04518681      -0.19975470      -0.24876011
Fe       6.83617000       5.56618000       0.59386000       1.74434500       1.47371700      -3.32847200       1.82360008       1.88870032      -3.41687874
Fe       8.27091000       4.29855000       2.87718000       3.23308900       0.33980500       1.37352500       3.13953120       0.19451471       1.40330578
Fe       6.58774000       4.90718000       4.97515000      -1.87594500       0.58060600      -0.05143700      -2.08205663       0.50578196      -0.66234416
Fe       6.86773000       6.79187000       3.27473000       1.52763600      -2.76254700       0.67579100       1.45582789      -2.44658098       0.34076365
Fe       8.09083000       8.29691000       0.84396000      -4.18921500      -1.95965200       9.56442300      -4.32742071      -2.30850399       9.51856872
Fe       6.62133000       7.67903000       7.47205000      -3.65417600       1.51975600      -3.32990400      -3.94283187       1.33333515      -3.46703258
B        3.45077000       6.81738000       6.75435000       2.04131500      -2.79808300       3.80923700       1.87718090      -2.77088548       3.96420150
B        4.67436000       1.10514000       4.73414000       0.75036200       0.95391600      -0.52852700       0.83148757       0.87690970      -0.40115074
B        6.18153000       2.20088000       5.47737000      -4.49435700      -3.20609500      -2.27763700      -4.68170669      -3.14597714      -2.37799204
B        5.08133000       4.10197000       6.35983000       0.35152900       0.25548900      -0.65354500       0.55444811       0.37142584      -0.62868313
B        4.48663000       4.29393000       1.40792000      -0.27448100       1.04603100       0.21283300      -0.18418444       1.19373592       0.24835165
B        4.96286000       5.88068000       6.14703000       0.60492000      -1.85032800       0.29314600       0.53806859      -1.91956651       0.17494976
B        8.17242000       5.65216000       5.55863000       1.00443800       0.65677900      -0.69824300       0.98708480       0.79821100      -0.34465229
B        7.98743000       6.92663000       6.60530000       5.86774900       2.58695800      -4.05103700       5.80229520       2.37369144      -3.75853921
B        7.10769000       5.72812000       6.91109000      -2.33709700      -3.34606800       1.34633400      -2.14085725      -3.41453150       1.73153452
B        7.81665000       6.81498000       8.33858000       5.04350100      -2.41043400       0.97359300       5.13745508      -2.67730799       0.57902364
Si       0.06983000       0.14925000       7.74742000       4.12649000       2.60901100      -8.87608100       4.06768483       2.59735522      -8.71198740
Si       1.93337000       2.41223000       3.74634000      10.14534600       2.98113100     -12.18526000      10.20588271       3.07653197     -11.98257209
Si       0.75978000       6.02813000       1.69309000      -4.13401100      -0.74920300       1.02787300      -4.13386891      -0.82633778       0.97774937
Si       2.22023000       5.10313000       7.16329000      -1.58663400       1.19675500      -1.89967800      -1.64198640       1.14825440      -1.93619155
Si       3.27754000       8.17117000       8.35443000       4.04667900       4.58101600      -2.24829100       3.93570980       4.60034119      -2.41245019
Si       4.48145000       2.18337000       8.34202000      -5.72220500      -5.96162700      -4.99603400      -5.54656311      -5.97091036      -5.11283075
Si       6.36439000       4.54151000       2.12641000       2.28764700      -2.33178900       1.39384200       2.49447416      -2.10953179       1.35220538
Si       4.52267000       6.51460000       3.75633000       0.42177200       5.22743800       1.25328700       0.12327115       5.32114304       1.33329023
Si       7.68278000       0.22257000       3.11016000      -0.17295300       4.89916800      -3.86478000      -0.26838173       4.80142455      -3.95251631
Si       7.35363000       3.38410000       6.13231000       4.40786200       1.27045000       2.62604800       4.35093249       1.44290470       2.93374019
54
Lattice="8.579999685 0.0 0.0 0.0 8.579999685 0.0 0.0 0.0 8.5799996" Properties=species:S:1:pos:R:3:REF_forces:R:3:MACE_forces:R:3 config_type=Fe34B10Si10 REF_energy=-354.71875992 MACE_energy=-355.0251644451552 pbc="T T T"
Fe       0.43313000       1.19321000       2.96848000       1.47291300       2.99028000       0.61180900       1.50100875       2.96080934       0.32029312
Fe       0.91365000       1.12516000       8.09995000       2.76260400      -2.00335600       1.20968300       2.42263515      -2.03955999       1.08472636
Fe       1.17142000       2.67870000       5.23446000      -1.90323000       6.04651700       0.58026800      -1.75910612       6.09288172       0.43598102
Fe       0.60772000       3.85484000       0.87278000       2.66909500       4.89444800       4.53699300       2.52174312       4.95386238       4.17714255
Fe       1.41565000       3.44858000       3.01161000      -0.29549500       2.03729500      -0.74017400      -0.09747110       1.90786869      -0.69176348
Fe       0.04226000       2.91249000       8.09734000      -3.39897200      -2.84207300      -2.69442200      -2.80367404      -2.83243209      -2.31523840
Fe       1.33282000       7.09057000       5.22634000      -0.45239700      -1.35392500       0.92503500      -0.22200059      -1.51435599       0.96472666
Fe       2.06045000       7.92051000       0.98063000      -3.11321000      -0.30108300      -2.49280600      -3.09893149      -0.40876764      -2.36450520
Fe       2.03627000       8.24295000       3.50701000      -1.42216600       4.38122900       0.88517600      -1.45050204       4.13267667       0.66635332
Fe       0.01253000       8.02686000       7.00667000       2.58679700       0.98610200     -11.80201700       2.44500725       0.92749275     -11.85924454
Fe       3.00353000       0.57289000       6.13981000      -1.03922300       0.18357300       0.93137300      -0.82064546       0.10438366       1.01073363
Fe       3.69949000       2.65196000       7.51811000       2.76433000      -4.34399200      -3.80269000       2.59348518      -4.11354879      -3.69210361
Fe       2.94478000       6.44154000       3.03987000       7.21319500      -3.66655800      -1.17614100       7.04703731      -3.46732044      -1.01562064
Fe       2.94309000       5.75189000       6.64956000      -6.24071800      -0.74678300       3.86021800      -6.50426710      -0.65155121       3.83782527
Fe       3.71160000       8.39321000       1.86324000       2.24845700      -0.43546600       0.28887200       2.17507259      -0.17332664       0.68245141
Fe       4.07810000       8.43915000       4.32840000       2.88035800       1.28304800      -0.49181300       2.86122204       1.38948154      -0.77565701
Fe       5.57499000       0.73262000       6.31633000      -3.12774100      -1.68249800      -0.98058200      -2.84731356      -1.67061204      -0.87937134
Fe       4.70712000       1.94493000       1.65492000      -2.04675700       4.97917500      -3.67899600      -2.10471826       4.75249437      -3.52171223
Fe       4.73401000       4.18392000       1.24748000       0.71501700       1.80608500      -0.06999200       0.69629573       2.01306628      -0.10901748
Fe       4.56687000       4.22266000       4.39618000       0.73801700       3.32591500      -2.10569900       0.46093440       3.14415104      -2.18700951
Fe       4.51224000       4.61167000       7.05684000       2.53211900      -0.41024200       0.53825400       2.98593792      -0.74880066       0.49170369
Fe       6.32808000       6.81945000       4.24288000      -3.20445400      -0.33519400      -1.28892300      -2.81974012      -0.25805517      -1.12945752
Fe       6.22240000       7.17309000       0.16230000      -3.30904600      -2.75215800       1.90373500      -3.48157922      -3.06990760       2.08975165
Fe       4.54224000       7.44382000       7.03838000       0.17895600      -5.02037800      -8.74618400       0.27184885      -5.26719584      -8.97226824
Fe       4.73272000       8.55832000       8.35561000      -0.10588400       8.96287400       6.54083400      -0.17850070       9.51907891       6.24314545
Fe       7.67285000       2.82429000       2.17742000      -2.12886900      -0.76272600      -2.06587500      -2.06099214      -0.80128819      -1.99282347
Fe       6.74071000       1.77406000       4.33655000       0.47479500       0.50025500      -0.42349800       0.08105021       0.46906061      -0.48934685
Fe       7.16362000       1.61896000       6.68131000       5.11373900       1.83737400       0.70818800       4.79791725       1.70024527       0.63963078
Fe       6.73653000       4.13840000       7.84564000       0.19062300       0.32905600       3.59274800       0.09883254       0.51212739       3.64564843
Fe       6.61248000       5.35948000       2.44590000       0.96755600      -0.77403900      -0.47053600       0.84658430      -0.68870839      -0.51374510
Fe       8.39074000       4.95678000       4.82580000       0.50677700       3.21370700       1.22596300       0.57776358       3.10763504       1.10071014
Fe       6.62275000       6.29700000       6.29237000       0.91106900      -0.58785400       1.74696000       0.78909558      -0.46719417       1.61084611
Fe       8.00875000       8.14674000       2.12563000      -1.25903800      -1.94608200      -3.37077000      -0.89135871      -1.93944187      -3.41263870
Fe       7.96861000       8.10559000       4.08816000       1.24434400       0.03207600       4.40361200       0.70244403      -0.02239007       4.50821966
B        3.14587000       1.61638000       2.59818000      -3.96044800      -1.57388800      -2.24367700      -3.97747501      -1.48154847      -1.99225781
B        4.07212000       1.93087000       3.78701000       0.55534200       0.12762300      -3.25123200       0.43498682       0.09090658      -3.24759685
B        2.24412000       1.90783000       4.05913000      -1.80380000      -9.70850100      -5.48536600      -1.84476799      -9.89605703      -5.56958782
B        2.90130000       3.06657000       4.45062000       2.48509300       7.60479000      -1.50334300       2.91076224       7.34074663      -1.47293313
B        2.82587000       3.80138000       5.80651000       0.21675600       2.27927400       3.92227300       0.35255668       2.13249787       3.83724774
B        2.60929000       5.04297000       1.66311000       0.12617300      -0.77075900      -0.46531300      -0.08026345      -0.74656806      -0.36333262
B        2.47198000       4.95014000       4.32601000      -0.76752800      -1.31946700       0.35153300      -0.80500167      -1.22682965       0.30126699
B        2.73354000       7.81887000       7.66829000      -1.47869400      -0.15377200       0.00458000      -1.53652817      -0.18164373       0.17401822
B        5.68071000       2.28134000       7.79544000      -0.95924500       0.41857400       1.11780500      -0.92025361       0.34215541       1.06353457
B        7.77536000       3.70665000       3.76574000      -0.44877700      -1.48394500      -0.38974400      -0.54867424      -1.40451636      -0.03124372
Si       0.79518000       0.92195000       5.77957000      -1.66645900      -4.94136200      -1.10925300      -1.61966811      -5.12207507      -0.95050842
Si       0.88055000       4.20706000       6.73551000       1.15626000       3.58432200      -0.32349000       1.10161607       3.79125377      -0.18369381
Si       1.15025000       6.44729000       2.43826000      -7.77651300      -1.83655100      -1.54918700      -7.91894112      -1.75006064      -1.73044109
Si       2.82820000       3.29548000       0.50208000      -4.05499500       1.58525200       5.32597100      -4.13896260       1.49422515       5.27787813
Si       4.14031000       6.38272000       0.30005000      -2.16949800      -2.44928300       2.57761000      -2.19806302      -2.51359963       2.56886389
Si       3.68345000       6.43010000       5.01209000       3.98893100       0.98565200      -2.13453700       3.85983878       1.19116569      -2.06403964
Si       5.73751000       0.59059000       2.53265000       5.08228400      -4.90021500       2.23852200       5.18448313      -4.93637262       2.49614025
Si       4.51163000       2.47994000       5.36819000       2.60737700      -2.86786400       7.12589500       2.76541104      -2.65872839       6.97631074
Si       6.43436000       3.75222000       5.86206000       1.38008400       0.66155200      -3.64612400       1.58418398       0.80269743      -3.77519298
Si       8.06432000       7.52318000       8.55473000       2.36409700      -3.06603600      11.34847700       2.65964516      -2.82050773      11.09720142
18
Lattice="6.5 0.0 0.0 0.0 6.5 0.0 0.0 0.0 6.5" Properties=species:S:1:pos:R:3:REF_forces:R:3:MACE_forces:R:3 config_type=Fe12B3Si3 REF_energy=-113.87843945 MACE_energy=-113.18794300789997 pbc="T T T"
Fe       5.40234000       5.43492000       1.53729000      -1.39532100       2.04028400       0.71142300      -1.18050836       2.00322722       0.71020313
Fe       2.09750000       2.10361000       0.54730000       2.35673700      -0.33103000       1.27254800       2.52851056      -0.10914554       1.11502377
Fe       2.84360000       1.73250000       3.81271000       2.28004000      -1.18251600      -0.27344700       2.20182595      -1.04991985      -0.15469793
Fe       0.77541000       4.93717000       1.04317000       1.56096300      -3.83372900       1.76362000       1.45696080      -3.63258850       1.48585967
Fe       0.07665000       3.70431000       3.74351000      -0.75952900      -0.39175400      -2.23189700      -0.99181822      -0.41025821      -2.29560703
Fe       4.77171000       3.58949000       4.78220000      -1.99219600      -4.62409700       0.48420500      -1.80495033      -4.62631704       0.43021033
Fe       4.12430000       1.49867000       1.46476000       0.29771700      -2.38794700       0.28396300       0.31405558      -2.67703565       0.13214911
Fe       0.95387000       5.17746000       5.28728000      -0.57085000      -0.50160400      -1.80733600      -0.94900964      -0.69825048      -1.30778628
Fe       1.93602000       3.09888000       2.36598000      -0.08855100       0.43128300      -0.27209000      -0.12724783       0.61562992      -0.39277722
Fe       5.69037000       1.28357000       4.20026000      -0.40866000      -0.49067900       0.18976600      -0.65858648      -0.27032872       0.16620922
Fe       1.94321000       2.86141000       5.39871000      -0.55906500       0.73218900      -1.80086600      -0.62719799       0.83497781      -1.86852491
Fe       4.33122000       5.38124000       5.25469000      -0.73272900       4.56545400       1.52017900      -0.72469808       4.43182129       1.53153426
B        0.37598000       1.64060000       1.21420000      -3.21263000       2.85095800       0.76078000      -3.11083518       2.71388461       0.92665085
B        1.88110000       4.04794000       3.96741000       2.48956600       2.45119300      -0.32261600       2.69001173       2.28514340      -0.39313925
B        3.63878000       0.94242000       5.41981000      -0.01444500       0.67937600       0.95779200       0.15826559       0.81094102       1.04575837
Si       1.19380000       0.26963000       0.19686000       0.54051800       0.24528300      -1.93219100       0.68314569       0.02230261      -1.92168950
Si       4.57825000       3.47658000       1.16117000       0.15934200       1.26766700      -0.81102600       0.19628147       1.42468734      -0.71523632
Si       1.09558000       0.76720000       2.75124000       0.04909300      -1.52033200       1.50719200      -0.05420528      -1.66877122       1.50585971
54
Lattice="8.579999685 0.0 0.0 0.0 8.579999685 0.0 0.0 0.0 8.5799996" Properties=species:S:1:pos:R:3:REF_forces:R:3:MACE_forces:R:3 config_type=Fe34B10Si10 REF_energy=-356.0869274 MACE_energy=-356.4996067246396 pbc="T T T"
Fe       0.92877000       1.08311000       2.12831000      -0.53214900      -1.15432400       0.53007800      -0.69024022      -1.24520473       0.39085778
Fe       1.12794000       0.45096000       7.37327000      -2.86345100       2.18226700       1.45805300      -2.86132976       2.01928572       1.46116790
Fe       0.91289000       3.61082000       1.96264000      -1.66570100       0.50807500      -4.76654600      -1.66967857       0.26022670      -4.76350215
Fe       0.97242000       3.25012000       3.83975000      -0.85629000      -1.23507100      -0.91491200      -1.06874420      -1.17617644      -0.41358180
Fe       1.43574000       3.84332000       5.84621000      -1.94378300      -0.72872400       4.94145300      -2.07071127      -0.52038377       4.71291986
Fe       0.45897000       5.99881000       1.32384000       1.86679900       1.45939200      -0.33976700       1.63753149       1.57251338      -0.20220091
Fe       0.05714000       6.25044000       6.01250000       0.66851500      -0.88142700       1.67028200       0.74704849      -0.74385921       1.81092058
Fe       1.87526000       7.05991000       7.27744000      -5.90957000       6.81146600       5.95768600      -5.77653528       7.19001172       5.91582296
Fe       4.21220000       0.80536000       3.81626000       0.44958900      -1.97725700       0.54591300       0.57527151      -1.90634915       0.42983530
Fe       2.64196000       0.75311000       5.88605000       0.80305000      -0.92688600      -1.50973400       0.61789343      -1.09564106      -1.55847210
Fe       2.51735000       4.27963000       7.86001000      -0.17185400       2.88247300       0.00075600       0.00053776       2.97054181       0.37896547
Fe       2.46175000       4.76211000       4.38544000       2.27245000       6.36429500      -0.60000700       2.25784899       6.38794373      -0.54316000
Fe       3.99132000       4.46692000       6.09268000      -0.21521200      -1.96607600      -0.25853400      -0.24177660      -2.12999317      -0.16314660
Fe       4.03283000       6.20484000       2.50717000       0.32509400      -1.83048700       1.07686200       0.45221442      -1.70534630       1.17441942
Fe       2.62183000       8.12097000       1.25125000      -5.45108600      -1.04608100      -0.88869000      -5.57085112      -1.01780153      -0.55006357
Fe       2.34208000       7.49949000       3.33705000      -1.45221900       0.10179900       1.96325000      -1.29397102       0.22919992       1.57730653
Fe       4.67554000       0.98699000       8.35162000       1.97529500       0.95938300       0.07305200       1.79632281       0.78834623       0.44785983
Fe       4.68615000       2.28426000       1.60336000       6.03713100       4.39249100       1.56082500       6.19014070       4.32663673       1.16027799
Fe       4.95897000       4.28949000       0.91503000       1.24258400       3.77490300      -1.07876200       0.63714335       3.41335388      -1.23603322
Fe       5.62605000       3.84953000       3.25301000      -4.56775200       3.43217100       2.09526400      -4.64603442       3.48627870       1.94747224
Fe       5.63153000       5.70233000       4.67966000       0.04558900       0.36352900      -0.74034800       0.10646763      -0.07614817      -0.60774430
Fe       5.00954000       6.14620000       6.89198000       4.51113600      -2.60361300       1.43664400       4.51582137      -2.43385693       1.36097437
Fe       5.34723000       7.32984000       0.56425000       3.41130600      -7.55812200      -7.44238600       3.32853530      -7.07587791      -7.30535074
Fe       4.57141000       8.20633000       1.67615000      -2.51651100       6.57056000       9.11650700      -2.60214272       6.22300065       8.74121266
Fe       5.67084000       7.83697000       6.02451000      -0.02983000       3.57151200       0.33120700      -0.08507911       3.74715103       0.40524372
Fe       7.65837000       1.05332000       0.64336000       1.95813700       2.93603900      -3.62028800       1.89215088       2.97992575      -3.49620742
Fe       7.23579000       1.49494000       3.62009000       0.88838800      -1.50203300       3.00240400       0.97906872      -1.60520402       3.03653369
Fe       6.96409000       1.59543000       6.70415000       0.40175100      -2.57633900      -0.54943900       0.53452944      -2.53194865      -0.51772393
Fe       6.97946000       3.05325000       2.27831000       3.01329100      -2.85779700      -7.80747400       2.51147374      -3.00983803      -7.20406224
Fe       7.05854000       3.62734000       7.13255000       0.94483300       2.42104600       2.56329500       1.05922221       2.44912582       2.50023157
Fe       7.47490000       4.49325000       0.92243000      -3.13561000       0.06366500       0.11142200      -2.92913872       0.42460250      -0.35968732
Fe       7.76499000       5.40883000       4.05655000       3.42051700      -2.49950500       1.10150300       3.48791148      -2.66793969       1.16700417
Fe       6.91686000       6.16423000       2.38917000      -4.34160700       0.52717700      -3.24358900      -4.29246190       0.64960797      -3.17587683
Fe       7.31773000       7.39473000       4.73130000      -1.41907300       3.06948200       1.38572900      -1.38882974       3.07631940       1.29899445
B        1.63947000       5.44017000       2.85377000      -1.37965300       1.67099600      -0.34434500      -1.42971902       1.76692026      -0.58325084
B        3.47444000       1.29905000       1.69513000      -6.04542900      -7.46227000      -1.52467000      -5.88623766      -7.26808843      -1.19375105
B        2.31673000       1.42955000       3.77944000      -1.85652800      -2.14982900       3.21956500      -1.78054587      -1.97221616       3.51271825
B        3.17088000       0.01260000       8.16689000      -2.14308300      -0.12737100      -3.63430700      -2.10727342       0.06870511      -3.57915513
B        2.48887000       2.23189000       2.44876000      -1.30373000       3.96631200      -0.94871100      -0.87002637       3.90620214      -1.25019665
B        3.55016000       3.21990000       0.17024000       2.13469500      -3.52588700       0.23974700       2.10194115      -3.41987872       0.16487825
B        3.12966000       3.07291000       4.24572000      -6.99085300       0.34377600      -0.16579100      -7.17213465       0.02017169      -0.35229341
B        2.38358000       5.95301000       6.34325000       2.25901800      -8.76611800      -6.31465800       2.25636446      -9.19802731      -6.51107889
B        4.46260000       2.62992000       4.23823000       7.08507900      -1.75449200       0.40993300       7.23596940      -1.70145235       0.46356057
B        7.51183000       3.59374000       3.85724000       1.49621300      -1.20378300       3.39561400       1.51061908      -1.11187583       3.32794948
Si       0.50050000       1.66927000       5.10425000      -1.02554400      -2.67263500       2.61432900      -0.86912977      -2.95314998       2.49933849
Si       0.41923000       4.50138000       8.15701000       0.82744200      -0.47721100      -2.57541600       1.07573080      -0.50837560      -2.80972992
Si       2.90131000       4.25049000       1.93860000       2.71957100       0.04497600      -0.88170100       2.95408252      -0.06432926      -1.14108941
Si       3.74353000       6.85388000       5.19884000      -1.20766000       1.80214700      -2.20114300      -1.10075633       1.93185604      -2.19394213
Si       3.54209000       6.47938000       8.21357000      -0.45014500      -1.75854100       4.24377300      -0.58263743      -1.99943378       4.43432263
Si       4.55252000       1.74669000       6.40118000       0.28733400       0.20348600      -1.69136000       0.28336041       0.18362270      -1.73886937
Si       5.87020000       3.30923000       5.41310000       1.93974000       0.55942400      -1.14043100       1.56327251       0.71848426      -1.17772751
Si       6.68392000       0.09389000       2.07850000      -2.78148600      -1.30329400       2.70552900      -2.46175306      -1.20526804       2.84306801
Si       7.30980000       7.36953000       0.08595000       4.18267400      -0.22507900      -1.67891000       4.12739836      -0.47916443      -1.67554254
Si       8.41387000       7.50606000       2.97540000       5.08859000       1.78741200      -0.88875800       5.01186583       2.03279482      -0.86041618
54
Lattice="8.579999685 0.0 0.0 0.0 8.579999685 0.0 0.0 0.0 8.5799996" Properties=species:S:1:pos:R:3:REF_forces:R:3:MACE_forces:R:3 config_type=Fe34B10Si10 REF_energy=-359.84864784 MACE_energy=-359.99066618609277 pbc="T T T"
Fe       0.39531000       2.37288000       0.87042000       3.27925500       2.43832800      -1.60261100       3.22781185       2.56034122      -1.72442585
Fe       0.75383000       1.65209000       3.11094000       1.30783500      -0.34615400      -0.09267000       1.25551182      -0.77822966       0.24166488
Fe       1.33201000       3.79282000       7.26231000      -2.40668100      -1.18131200       0.32245500      -2.55027788      -1.05781626       0.16558489
Fe       0.64436000       4.41396000       2.97573000       2.42004200      -2.26182600       0.38963900       2.47609432      -2.04096563       0.22087035
Fe       0.14751000       6.42079000       3.51005000      -3.07002100       1.32407200      -2.30638400      -3.10695523       1.38372679      -2.55062844