54
Lattice="8.579999685 0.0 0.0 0.0 8.579999685 0.0 0.0 0.0 8.5799996" Properties=species:S:1:pos:R:3:REF_forces:R:3:MACE_forces:R:3 config_type=Fe34B10Si10 REF_energy=-352.89092233 MACE_energy=-351.91732630003986 pbc="T T T"
Fe       1.46495000       0.71583000       1.12880000       3.73230100      -3.41607500      -3.76209700       3.12204469      -3.08762697      -3.07107461
Fe       0.56244000       2.07917000       1.96452000      -3.31290700       4.06628900       2.54508600      -3.25718604       3.62844305       2.20154444
Fe       0.86636000       2.12990000       5.00906000     -10.85567700      -2.87102900      12.20968700     -10.44942934      -2.66373025      11.94052347
Fe       0.24697000       2.61233000       7.83061000      -0.37811800      -2.03816900      -0.08744800      -0.40087904      -1.99060777       0.08633293
Fe       0.35437000       4.66395000       8.16447000      -1.30300600       1.62250000       0.84662400      -1.30500523       1.80670589       0.78308485
Fe       0.83543000       8.00840000       3.01492000       5.54921000      -2.55787300       0.52513800       5.58495871      -2.78147803       0.59690682
Fe       2.03952000       7.84431000       6.63062000      -4.28706100       1.82495200      -1.68802900      -3.91975445       1.83121594      -1.70077978
Fe       3.34318000       0.11090000       2.96052000      -0.46571400      -0.35056300       0.37864800      -0.70022039      -0.10843357       0.53103109
Fe       3.26317000       2.11539000       1.48699000      -3.47884800      -0.03222100       0.61542300      -3.47948154       0.01117829      -0.05425553
Fe       4.14313000       2.75755000       3.31065000      -0.71378000      -2.73118300       1.93004800      -0.47596502      -1.99942497       1.73214791
Fe       2.55051000       2.67374000       7.19710000      -2.55215900      -0.93589000       1.77261600      -2.16649389      -0.79936030       1.65456315
Fe       3.61327000       2.86500000       5.46497000       1.55763200       0.20514300      -0.56676300       1.39867334       0.27373271      -0.22456830
Fe       2.62400000       4.72550000       1.39174000      -1.08585200      -1.19598700       0.59645400      -1.09272140      -1.06696250       0.56325206
Fe       2.20317000       5.21693000       3.87451000      -3.92870900      -4.38103900      -4.92199500      -3.96212444      -4.61272078      -5.26927994
Fe       3.93082000       4.37819000       8.08226000       1.07616800       0.44807800      -0.99700400       1.10597164       0.32488554      -0.51218774
Fe       2.44961000       7.01753000       1.08943000       0.32119000      -1.55635000       3.27006500       0.60525165      -1.51743206       3.14238483
Fe       3.02500000       6.15780000       5.08193000      -1.08486800       1.64126100       3.95415400      -0.14411924       1.62533256       4.34199612
Fe       5.77712000       0.44616000       0.16142000      -2.43333700       0.07175000       4.13474700      -2.16142028       0.23649138       4.28159096
Fe       5.66964000       0.14892000       2.95259000      -3.67617900       1.90971100       0.12919700      -3.57485911       1.93657109       0.16806836
Fe       5.39484000       2.66317000       1.55162000       4.08183700      -3.39937100       3.88213200       4.20464440      -3.82386110       4.28948538
Fe       5.91309000       3.40423000       8.31953000       8.90196200       5.48305700      -2.72562400       8.60849792       5.54503329      -3.53911009
Fe       4.96126000       4.63305000       3.41410000      -3.60269200      -2.00302700       2.25051900      -3.58126155      -2.69011351       2.93001716
Fe       5.11347000       6.81217000       1.78872000      -0.87770500       0.06714300      -1.61156800      -0.79698241       0.23188301      -1.80952688
Fe       5.00950000       6.45991000       8.24507000      -2.30619500      -0.19808200      -1.52355700      -2.26726386      -0.31113844      -1.77292755
Fe       4.64263000       7.71190000       5.75084000       2.50156800       4.23919200      -1.55456800       2.62185974       4.49413968      -1.72176288
Fe       7.32285000       0.33022000       5.03535000      -0.99210900      -0.59745100       4.73628300      -0.84764912      -0.60429299       4.44868876
Fe       6.75330000       1.32958000       7.05071000       0.53851300       2.01290400       0.36400700       0.48707573       1.72750716       0.71068887
Fe       6.82686000       2.53028000       3.66692000      -0.08907100      -0.12987400      -0.26318300       0.22171262      -0.25255517      -0.35498031
Fe       6.83617000       5.56618000       0.59386000       1.74434500       1.47371700      -3.32847200       1.22424776       1.07468682      -3.20799308
Fe       8.27091000       4.29855000       2.87718000       3.23308900       0.33980500       1.37352500       3.04148916       0.31667822       1.31270301
Fe       6.58774000       4.90718000       4.97515000      -1.87594500       0.58060600      -0.05143700      -2.37054933       0.90524851      -0.76076464
Fe       6.86773000       6.79187000       3.27473000       1.52763600      -2.76254700       0.67579100       1.51209006      -2.54654807       0.35631120
Fe       8.09083000       8.29691000       0.84396000      -4.18921500      -1.95965200       9.56442300      -4.14666028      -2.00072343       9.70683788
Fe       6.62133000       7.67903000       7.47205000      -3.65417600       1.51975600      -3.32990400      -4.10616599       1.25468589      -4.00398923
B        3.45077000       6.81738000       6.75435000       2.04131500      -2.79808300       3.80923700       1.93414733      -3.05369044       4.00957598
B        4.67436000       1.10514000       4.73414000       0.75036200       0.95391600      -0.52852700       0.55317356       0.52942992      -0.41350759
B        6.18153000       2.20088000       5.47737000      -4.49435700      -3.20609500      -2.27763700      -4.43969614      -2.81622744      -2.43652251
B        5.08133000       4.10197000       6.35983000       0.35152900       0.25548900      -0.65354500       0.50365738       0.53724074      -0.37821524
B        4.48663000       4.29393000       1.40792000      -0.27448100       1.04603100       0.21283300      -0.24830474       1.42490752       0.00842363
B        4.96286000       5.88068000       6.14703000       0.60492000      -1.85032800       0.29314600       0.26605813      -1.94164272       0.27037524
B        8.17242000       5.65216000       5.55863000       1.00443800       0.65677900      -0.69824300       1.77064354       0.18018889      -0.38054750
B        7.98743000       6.92663000       6.60530000       5.86774900       2.58695800      -4.05103700       5.39561709       2.58235516      -3.27457530
B        7.10769000       5.72812000       6.91109000      -2.33709700      -3.34606800       1.34633400      -2.61931393      -3.51073933       1.31103103
B        7.81665000       6.81498000       8.33858000       5.04350100      -2.41043400       0.97359300       5.17516608      -2.44965441       0.32631010
Si       0.06983000       0.14925000       7.74742000       4.12649000       2.60901100      -8.87608100       4.24641611       2.73087052      -8.74921728
Si       1.93337000       2.41223000       3.74634000      10.14534600       2.98113100     -12.18526000       9.86139760       2.87670334     -11.62669945
Si       0.75978000       6.02813000       1.69309000      -4.13401100      -0.74920300       1.02787300      -3.91805873      -1.01562399       0.88989565
Si       2.22023000       5.10313000       7.16329000      -1.58663400       1.19675500      -1.89967800      -1.64046945       1.20388112      -1.85033736
Si       3.27754000       8.17117000       8.35443000       4.04667900       4.58101600      -2.24829100       3.92055038       4.46613851      -2.03617645
Si       4.48145000       2.18337000       8.34202000      -5.72220500      -5.96162700      -4.99603400      -5.87520014      -5.54755815      -5.04788441
Si       6.36439000       4.54151000       2.12641000       2.28764700      -2.33178900       1.39384200       2.04291503      -2.11845576       1.49218013
Si       4.52267000       6.51460000       3.75633000       0.42177200       5.22743800       1.25328700       0.38926373       5.44607805       1.23216449
Si       7.68278000       0.22257000       3.11016000      -0.17295300       4.89916800      -3.86478000      -0.04476099       4.66759177      -3.97507628
Si       7.35363000       3.38410000       6.13231000       4.40786200       1.27045000       2.62604800       4.19447267       1.44079760       2.85384438
54
Lattice="8.579999685 0.0 0.0 0.0 8.579999685 0.0 0.0 0.0 8.5799996" Properties=species:S:1:pos:R:3:REF_forces:R:3:MACE_forces:R:3 config_type=Fe34B10Si10 REF_energy=-354.71875992 MACE_energy=-352.64651451925494 pbc="T T T"
Fe       0.43313000       1.19321000       2.96848000       1.47291300       2.99028000       0.61180900       1.41423213       2.69439782       0.39812888
Fe       0.91365000       1.12516000       8.09995000       2.76260400      -2.00335600       1.20968300       2.37777573      -1.46286205       1.19167865
Fe       1.17142000       2.67870000       5.23446000      -1.90323000       6.04651700       0.58026800      -2.47754331       6.54650741       0.21100297
Fe       0.60772000       3.85484000       0.87278000       2.66909500       4.89444800       4.53699300       2.41656158       4.87539420       4.07650547
Fe       1.41565000       3.44858000       3.01161000      -0.29549500       2.03729500      -0.74017400       0.07782065       2.20375717      -0.96531384
Fe       0.04226000       2.91249000       8.09734000      -3.39897200      -2.84207300      -2.69442200      -2.70360877      -2.84184383      -2.51280197
Fe       1.33282000       7.09057000       5.22634000      -0.45239700      -1.35392500       0.92503500      -0.20595191      -1.20453320       0.67587614
Fe       2.06045000       7.92051000       0.98063000      -3.11321000      -0.30108300      -2.49280600      -3.54736894      -0.36538600      -2.62475236
Fe       2.03627000       8.24295000       3.50701000      -1.42216600       4.38122900       0.88517600      -1.80989996       4.21864500       0.89271680
Fe       0.01253000       8.02686000       7.00667000       2.58679700       0.98610200     -11.80201700       2.23086180       0.64714542     -11.86096923
Fe       3.00353000       0.57289000       6.13981000      -1.03922300       0.18357300       0.93137300      -0.68576237       0.24254475       0.73003428
Fe       3.69949000       2.65196000       7.51811000       2.76433000      -4.34399200      -3.80269000       2.06090112      -4.02807423      -3.73261549
Fe       2.94478000       6.44154000       3.03987000       7.21319500      -3.66655800      -1.17614100       7.24524118      -3.41930506      -0.91002426
Fe       2.94309000       5.75189000       6.64956000      -6.24071800      -0.74678300       3.86021800      -6.02189772      -0.81094350       4.48980326
Fe       3.71160000       8.39321000       1.86324000       2.24845700      -0.43546600       0.28887200       2.80798583      -0.19577210       0.98383036
Fe       4.07810000       8.43915000       4.32840000       2.88035800       1.28304800      -0.49181300       2.87555152       1.20604501      -0.66002934
Fe       5.57499000       0.73262000       6.31633000      -3.12774100      -1.68249800      -0.98058200      -2.95499003      -1.95519714      -1.45127691
Fe       4.70712000       1.94493000       1.65492000      -2.04675700       4.97917500      -3.67899600      -1.51763711       4.62604818      -3.64146716
Fe       4.73401000       4.18392000       1.24748000       0.71501700       1.80608500      -0.06999200       0.64154661       1.82062494      -0.07390876
Fe       4.56687000       4.22266000       4.39618000       0.73801700       3.32591500      -2.10569900       0.32537540       3.75721867      -2.14723995
Fe       4.51224000       4.61167000       7.05684000       2.53211900      -0.41024200       0.53825400       2.64856305      -0.56614746       0.36401033
Fe       6.32808000       6.81945000       4.24288000      -3.20445400      -0.33519400      -1.28892300      -2.37169080      -0.33532454      -1.09573902
Fe       6.22240000       7.17309000       0.16230000      -3.30904600      -2.75215800       1.90373500      -3.22590070      -2.97613234       2.14602558
Fe       4.54224000       7.44382000       7.03838000       0.17895600      -5.02037800      -8.74618400       0.34672250      -5.29687311      -8.44356386
Fe       4.73272000       8.55832000       8.35561000      -0.10588400       8.96287400       6.54083400      -0.48957381       8.90898208       5.89313883
Fe       7.67285000       2.82429000       2.17742000      -2.12886900      -0.76272600      -2.06587500      -2.07485053      -0.65214226      -1.63882092
Fe       6.74071000       1.77406000       4.33655000       0.47479500       0.50025500      -0.42349800       0.31401133       0.59074356      -0.75818006
Fe       7.16362000       1.61896000       6.68131000       5.11373900       1.83737400       0.70818800       4.74886484       1.58345691       0.66542932
Fe       6.73653000       4.13840000       7.84564000       0.19062300       0.32905600       3.59274800       0.25601955       0.84614775       3.61802368
Fe       6.61248000       5.35948000       2.44590000       0.96755600      -0.77403900      -0.47053600       0.57657248      -0.54598826      -0.04740621
Fe       8.39074000       4.95678000       4.82580000       0.50677700       3.21370700       1.22596300       0.62244812       2.60902924       1.06231138
Fe       6.62275000       6.29700000       6.29237000       0.91106900      -0.58785400       1.74696000       0.58561733      -0.55858402       1.50627428
Fe       8.00875000       8.14674000       2.12563000      -1.25903800      -1.94608200      -3.37077000      -1.27428704      -1.45727052      -3.73614322
Fe       7.96861000       8.10559000       4.08816000       1.24434400       0.03207600       4.40361200       0.61676021       0.01432064       4.89544294
B        3.14587000       1.61638000       2.59818000      -3.96044800      -1.57388800      -2.24367700      -4.00782727      -1.19536441      -1.91043753
B        4.07212000       1.93087000       3.78701000       0.55534200       0.12762300      -3.25123200       1.24338481      -0.36212026      -3.42019138
B        2.24412000       1.90783000       4.05913000      -1.80380000      -9.70850100      -5.48536600      -2.34899316     -10.14713212      -5.14905869
B        2.90130000       3.06657000       4.45062000       2.48509300       7.60479000      -1.50334300       3.23622347       6.45613691      -1.49367062
B        2.82587000       3.80138000       5.80651000       0.21675600       2.27927400       3.92227300       0.44825559       2.66498821       3.59297714
B        2.60929000       5.04297000       1.66311000       0.12617300      -0.77075900      -0.46531300      -0.01908562      -0.90427461      -0.44370049
B        2.47198000       4.95014000       4.32601000      -0.76752800      -1.31946700       0.35153300      -0.89688020      -1.14060664       0.33858117
B        2.73354000       7.81887000       7.66829000      -1.47869400      -0.15377200       0.00458000      -1.36088815      -0.13524420       0.03514041
B        5.68071000       2.28134000       7.79544000      -0.95924500       0.41857400       1.11780500      -0.78575694       0.19569919       1.11760708
B        7.77536000       3.70665000       3.76574000      -0.44877700      -1.48394500      -0.38974400      -0.38734889      -1.50787630      -0.37405487
Si       0.79518000       0.92195000       5.77957000      -1.66645900      -4.94136200      -1.10925300      -1.50870393      -4.73196436      -0.95580580
Si       0.88055000       4.20706000       6.73551000       1.15626000       3.58432200      -0.32349000       1.07879734       3.46520071       0.15373363
Si       1.15025000       6.44729000       2.43826000      -7.77651300      -1.83655100      -1.54918700      -7.80790966      -1.90969582      -1.61831417
Si       2.82820000       3.29548000       0.50208000      -4.05499500       1.58525200       5.32597100      -4.03266679       1.50058625       5.16244144
Si       4.14031000       6.38272000       0.30005000      -2.16949800      -2.44928300       2.57761000      -2.31913496      -2.63633607       2.30988851
Si       3.68345000       6.43010000       5.01209000       3.98893100       0.98565200      -2.13453700       3.68095943       1.12672799      -2.13447022
Si       5.73751000       0.59059000       2.53265000       5.08228400      -4.90021500       2.23852200       5.05385598      -4.49805650       2.74937413
Si       4.51163000       2.47994000       5.36819000       2.60737700      -2.86786400       7.12589500       2.79715053      -2.59435999       6.94060759
Si       6.43436000       3.75222000       5.86206000       1.38008400       0.66155200      -3.64612400       1.09631295       0.57648506      -3.35711317
Si       8.06432000       7.52318000       8.55473000       2.36409700      -3.06603600      11.34847700       3.01178550      -2.94142217      10.95648525
18
Lattice="6.5 0.0 0.0 0.0 6.5 0.0 0.0 0.0 6.5" Properties=species:S:1:pos:R:3:REF_forces:R:3:MACE_forces:R:3 config_type=Fe12B3Si3 REF_energy=-113.87843945 MACE_energy=-119.12884811213107 pbc="T T T"
Fe       5.40234000       5.43492000       1.53729000      -1.39532100       2.04028400       0.71142300      -1.89003156       2.09172621       0.85150607
Fe       2.09750000       2.10361000       0.54730000       2.35673700      -0.33103000       1.27254800       2.38667207      -0.86513206       1.85828991
Fe       2.84360000       1.73250000       3.81271000       2.28004000      -1.18251600      -0.27344700       2.25131678      -1.34368067      -0.27173219
Fe       0.77541000       4.93717000       1.04317000       1.56096300      -3.83372900       1.76362000       1.64784521      -3.56632060       1.39636942
Fe       0.07665000       3.70431000       3.74351000      -0.75952900      -0.39175400      -2.23189700      -1.46615521      -0.50454086      -2.26360922
Fe       4.77171000       3.58949000       4.78220000      -1.99219600      -4.62409700       0.48420500      -1.39567761      -3.96201519       0.50694192
Fe       4.12430000       1.49867000       1.46476000       0.29771700      -2.38794700       0.28396300       0.23531683      -3.05943667       0.55449255
Fe       0.95387000       5.17746000       5.28728000      -0.57085000      -0.50160400      -1.80733600      -0.52358473      -0.19560749      -1.19147800
Fe       1.93602000       3.09888000       2.36598000      -0.08855100       0.43128300      -0.27209000       0.07020734       1.13006962      -1.17909672
Fe       5.69037000       1.28357000       4.20026000      -0.40866000      -0.49067900       0.18976600      -0.64363762      -0.57705600       0.20796393
Fe       1.94321000       2.86141000       5.39871000      -0.55906500       0.73218900      -1.80086600      -0.70041831       1.08224528      -1.55595470
Fe       4.33122000       5.38124000       5.25469000      -0.73272900       4.56545400       1.52017900      -0.50345448       4.03621162       1.36630885
B        0.37598000       1.64060000       1.21420000      -3.21263000       2.85095800       0.76078000      -2.81774780       2.47795022      -0.10585885
B        1.88110000       4.04794000       3.96741000       2.48956600       2.45119300      -0.32261600       2.33095013       2.71790201      -0.11075041
B        3.63878000       0.94242000       5.41981000      -0.01444500       0.67937600       0.95779200       0.49085255       0.30479646       0.89570851
Si       1.19380000       0.26963000       0.19686000       0.54051800       0.24528300      -1.93219100       0.64202770       0.30022513      -1.66712964
Si       4.57825000       3.47658000       1.16117000       0.15934200       1.26766700      -0.81102600      -0.18302083       1.50434254      -0.86250714
Si       1.09558000       0.76720000       2.75124000       0.04909300      -1.52033200       1.50719200       0.06853954      -1.57167954       1.57053571
54
Lattice="8.579999685 0.0 0.0 0.0 8.579999685 0.0 0.0 0.0 8.5799996" Properties=species:S:1:pos:R:3:REF_forces:R:3:MACE_forces:R:3 config_type=Fe34B10Si10 REF_energy=-356.0869274 MACE_energy=-354.586110704757 pbc="T T T"
Fe       0.92877000       1.08311000       2.12831000      -0.53214900      -1.15432400       0.53007800      -0.78517512      -0.87853191       0.76175682
Fe       1.12794000       0.45096000       7.37327000      -2.86345100       2.18226700       1.45805300      -2.44053117       2.04816531       1.28623747
Fe       0.91289000       3.61082000       1.96264000      -1.66570100       0.50807500      -4.76654600      -2.05624292       0.40740781      -4.51979559
Fe       0.97242000       3.25012000       3.83975000      -0.85629000      -1.23507100      -0.91491200      -0.61795936      -1.27462053      -0.08634201
Fe       1.43574000       3.84332000       5.84621000      -1.94378300      -0.72872400       4.94145300      -1.86704013      -0.66242917       4.40619023
Fe       0.45897000       5.99881000       1.32384000       1.86679900       1.45939200      -0.33976700       2.06820122       1.57498245       0.03571674
Fe       0.05714000       6.25044000       6.01250000       0.66851500      -0.88142700       1.67028200       0.66778783      -1.20218567       1.47043415
Fe       1.87526000       7.05991000       7.27744000      -5.90957000       6.81146600       5.95768600      -5.41416647       7.13309101       5.87277929
Fe       4.21220000       0.80536000       3.81626000       0.44958900      -1.97725700       0.54591300       0.51137973      -1.69390804       0.36937142
Fe       2.64196000       0.75311000       5.88605000       0.80305000      -0.92688600      -1.50973400       0.39504876      -0.69313164      -1.56910383
Fe       2.51735000       4.27963000       7.86001000      -0.17185400       2.88247300       0.00075600      -0.17494781       2.42059066      -0.33182553
Fe       2.46175000       4.76211000       4.38544000       2.27245000       6.36429500      -0.60000700       2.11824777       5.97813655      -0.93412080
Fe       3.99132000       4.46692000       6.09268000      -0.21521200      -1.96607600      -0.25853400      -0.58212097      -2.17832296      -0.42539216
Fe       4.03283000       6.20484000       2.50717000       0.32509400      -1.83048700       1.07686200       0.43544188      -1.76539555       0.91144182
Fe       2.62183000       8.12097000       1.25125000      -5.45108600      -1.04608100      -0.88869000      -5.36067336      -1.34709276      -0.50675262
Fe       2.34208000       7.49949000       3.33705000      -1.45221900       0.10179900       1.96325000      -1.39724888       0.16517562       2.08939083
Fe       4.67554000       0.98699000       8.35162000       1.97529500       0.95938300       0.07305200       1.93828797       1.22717057       0.34247196
Fe       4.68615000       2.28426000       1.60336000       6.03713100       4.39249100       1.56082500       6.90365491       4.63823044       1.01736854
Fe       4.95897000       4.28949000       0.91503000       1.24258400       3.77490300      -1.07876200       1.16411176       3.81262610      -1.33657843
Fe       5.62605000       3.84953000       3.25301000      -4.56775200       3.43217100       2.09526400      -4.75405325       3.16128709       1.67650546
Fe       5.63153000       5.70233000       4.67966000       0.04558900       0.36352900      -0.74034800      -0.20597960       0.17940037      -0.82706015
Fe       5.00954000       6.14620000       6.89198000       4.51113600      -2.60361300       1.43664400       3.73715188      -2.22913923       1.31715933
Fe       5.34723000       7.32984000       0.56425000       3.41130600      -7.55812200      -7.44238600       3.24460629      -6.70483732      -7.09553232
Fe       4.57141000       8.20633000       1.67615000      -2.51651100       6.57056000       9.11650700      -2.16414160       5.05060931       9.21841228
Fe       5.67084000       7.83697000       6.02451000      -0.02983000       3.57151200       0.33120700      -0.07017137       3.78659230       0.08096378
Fe       7.65837000       1.05332000       0.64336000       1.95813700       2.93603900      -3.62028800       1.69614217       2.54351549      -3.69312120
Fe       7.23579000       1.49494000       3.62009000       0.88838800      -1.50203300       3.00240400       0.83477695      -1.36207369       3.28402142
Fe       6.96409000       1.59543000       6.70415000       0.40175100      -2.57633900      -0.54943900       0.44894043      -2.56714595      -0.41998811
Fe       6.97946000       3.05325000       2.27831000       3.01329100      -2.85779700      -7.80747400       2.51539076      -3.34412265      -6.78835148
Fe       7.05854000       3.62734000       7.13255000       0.94483300       2.42104600       2.56329500       1.00633288       2.57928087       2.15304218
Fe       7.47490000       4.49325000       0.92243000      -3.13561000       0.06366500       0.11142200      -2.97746591       0.66824470      -0.38836164
Fe       7.76499000       5.40883000       4.05655000       3.42051700      -2.49950500       1.10150300       3.77745997      -2.57317969       0.89908155
Fe       6.91686000       6.16423000       2.38917000      -4.34160700       0.52717700      -3.24358900      -4.58801765       0.24665951      -2.93827615
Fe       7.31773000       7.39473000       4.73130000      -1.41907300       3.06948200       1.38572900      -1.39180782       3.00403641       1.66965371
B        1.63947000       5.44017000       2.85377000      -1.37965300       1.67099600      -0.34434500      -1.61130897       1.76081232      -0.41476124
B        3.47444000       1.29905000       1.69513000      -6.04542900      -7.46227000      -1.52467000      -6.02388057      -7.55311841      -1.42649708
B        2.31673000       1.42955000       3.77944000      -1.85652800      -2.14982900       3.21956500      -1.76371118      -2.08019641       3.53107184
B        3.17088000       0.01260000       8.16689000      -2.14308300      -0.12737100      -3.63430700      -1.71233197       0.03318835      -3.88487613
B        2.48887000       2.23189000       2.44876000      -1.30373000       3.96631200      -0.94871100      -0.82241822       3.90897102      -0.71286199
B        3.55016000       3.21990000       0.17024000       2.13469500      -3.52588700       0.23974700       1.78616756      -3.33823677       0.80152241
B        3.12966000       3.07291000       4.24572000      -6.99085300       0.34377600      -0.16579100      -7.25936548       0.07460929      -0.12578993
B        2.38358000       5.95301000       6.34325000       2.25901800      -8.76611800      -6.31465800       2.24902314      -8.97440872      -6.67170874
B        4.46260000       2.62992000       4.23823000       7.08507900      -1.75449200       0.40993300       7.03070809      -1.77592499       0.15809529
B        7.51183000       3.59374000       3.85724000       1.49621300      -1.20378300       3.39561400       1.64053324      -0.99262074       3.41120763
Si       0.50050000       1.66927000       5.10425000      -1.02554400      -2.67263500       2.61432900      -0.78416993      -2.67985676       2.37527053
Si       0.41923000       4.50138000       8.15701000       0.82744200      -0.47721100      -2.57541600       0.96728297      -0.24188482      -2.85786591
Si       2.90131000       4.25049000       1.93860000       2.71957100       0.04497600      -0.88170100       2.78658875       0.36305532      -0.87849426
Si       3.74353000       6.85388000       5.19884000      -1.20766000       1.80214700      -2.20114300      -1.19509334       1.91258456      -2.21082011
Si       3.54209000       6.47938000       8.21357000      -0.45014500      -1.75854100       4.24377300      -0.51690271      -1.94424207       4.48642851
Si       4.55252000       1.74669000       6.40118000       0.28733400       0.20348600      -1.69136000      -0.03258564      -0.01396167      -1.51094554
Si       5.87020000       3.30923000       5.41310000       1.93974000       0.55942400      -1.14043100       1.89208698       0.90365926      -0.95772084
Si       6.68392000       0.09389000       2.07850000      -2.78148600      -1.30329400       2.70552900      -2.69526021      -0.76224198       2.67496115
Si       7.30980000       7.36953000       0.08595000       4.18267400      -0.22507900      -1.67891000       4.09539586      -0.74606840      -1.94173645
Si       8.41387000       7.50606000       2.97540000       5.08859000       1.78741200      -0.88875800       5.35402185       1.99679581      -0.84587606
54
Lattice="8.579999685 0.0 0.0 0.0 8.579999685 0.0 0.0 0.0 8.5799996" Properties=species:S:1:pos:R:3:REF_forces:R:3:MACE_forces:R:3 config_type=Fe34B10Si10 REF_energy=-359.84864784 MACE_energy=-358.407046551218 pbc="T T T"
Fe       0.39531000       2.37288000       0.87042000       3.27925500       2.43832800      -1.60261100       2.96261091       2.64741900      -1.92629017
Fe       0.75383000       1.65209000       3.11094000       1.30783500      -0.34615400      -0.09267000       0.60087645      -0.46680330       0.24940345
Fe       1.33201000       3.79282000       7.26231000      -2.40668100      -1.18131200       0.32245500      -2.16091204      -0.88357947       0.30475420
Fe       0.64436000       4.41396000       2.97573000       2.42004200      -2.26182600       0.38963900       2.07944386      -1.96094023       0.52495154
Fe       0.14751000       6.42079000       3.51005000      -3.07002100       1.32407200      -2.30638400      -2.74475409       0.96554508      -2.30964787