54
Lattice="8.579999685 0.0 0.0 0.0 8.579999685 0.0 0.0 0.0 8.5799996" Properties=species:S:1:pos:R:3:REF_forces:R:3:MACE_forces:R:3 config_type=Fe34B10Si10 REF_energy=-352.89092233 MACE_energy=-352.8552450593943 pbc="T T T"
Fe       1.46495000       0.71583000       1.12880000       3.73230100      -3.41607500      -3.76209700       3.76329905      -3.54715164      -3.75496056
Fe       0.56244000       2.07917000       1.96452000      -3.31290700       4.06628900       2.54508600      -3.38864091       4.14059947       2.43087314
Fe       0.86636000       2.12990000       5.00906000     -10.85567700      -2.87102900      12.20968700     -10.92973751      -2.94651928      12.14450444
Fe       0.24697000       2.61233000       7.83061000      -0.37811800      -2.03816900      -0.08744800      -0.30211078      -2.03946545       0.15907583
Fe       0.35437000       4.66395000       8.16447000      -1.30300600       1.62250000       0.84662400      -1.36468729       1.61226505       0.80523787
Fe       0.83543000       8.00840000       3.01492000       5.54921000      -2.55787300       0.52513800       5.51835808      -2.62726981       0.45056839
Fe       2.03952000       7.84431000       6.63062000      -4.28706100       1.82495200      -1.68802900      -4.05505411       2.00939706      -1.68763368
Fe       3.34318000       0.11090000       2.96052000      -0.46571400      -0.35056300       0.37864800      -0.44889085      -0.20010440       0.50623012
Fe       3.26317000       2.11539000       1.48699000      -3.47884800      -0.03222100       0.61542300      -3.31869816      -0.28827398       0.24297580
Fe       4.14313000       2.75755000       3.31065000      -0.71378000      -2.73118300       1.93004800      -0.65911811      -2.50501014       1.93746478
Fe       2.55051000       2.67374000       7.19710000      -2.55215900      -0.93589000       1.77261600      -2.28832354      -1.03060099       1.71694997
Fe       3.61327000       2.86500000       5.46497000       1.55763200       0.20514300      -0.56676300       1.48133635       0.30870014      -0.26489849
Fe       2.62400000       4.72550000       1.39174000      -1.08585200      -1.19598700       0.59645400      -1.37546296      -0.89397272       0.74891371
Fe       2.20317000       5.21693000       3.87451000      -3.92870900      -4.38103900      -4.92199500      -3.91639221      -4.41894199      -5.07003245
Fe       3.93082000       4.37819000       8.08226000       1.07616800       0.44807800      -0.99700400       1.09431958       0.27074043      -1.10690527
Fe       2.44961000       7.01753000       1.08943000       0.32119000      -1.55635000       3.27006500       0.47091743      -1.65432762       3.31252288
Fe       3.02500000       6.15780000       5.08193000      -1.08486800       1.64126100       3.95415400      -0.46055524       1.64374884       3.99645718
Fe       5.77712000       0.44616000       0.16142000      -2.43333700       0.07175000       4.13474700      -2.39387696       0.42455242       4.17626264
Fe       5.66964000       0.14892000       2.95259000      -3.67617900       1.90971100       0.12919700      -3.69033988       1.66458344       0.28597412
Fe       5.39484000       2.66317000       1.55162000       4.08183700      -3.39937100       3.88213200       3.89993842      -3.76509337       4.06612023
Fe       5.91309000       3.40423000       8.31953000       8.90196200       5.48305700      -2.72562400       8.70528823       5.52582143      -2.78125508
Fe       4.96126000       4.63305000       3.41410000      -3.60269200      -2.00302700       2.25051900      -3.83565291      -2.23160480       2.37536280
Fe       5.11347000       6.81217000       1.78872000      -0.87770500       0.06714300      -1.61156800      -0.64420541       0.09451236      -1.60925166
Fe       5.00950000       6.45991000       8.24507000      -2.30619500      -0.19808200      -1.52355700      -2.25276554      -0.05524312      -1.61633244
Fe       4.64263000       7.71190000       5.75084000       2.50156800       4.23919200      -1.55456800       2.56903466       4.23130299      -1.70504371
Fe       7.32285000       0.33022000       5.03535000      -0.99210900      -0.59745100       4.73628300      -1.05156894      -0.37954713       4.73039168
Fe       6.75330000       1.32958000       7.05071000       0.53851300       2.01290400       0.36400700       0.44674720       1.87624171       0.35927920
Fe       6.82686000       2.53028000       3.66692000      -0.08907100      -0.12987400      -0.26318300       0.05060905      -0.20990398      -0.24521301
Fe       6.83617000       5.56618000       0.59386000       1.74434500       1.47371700      -3.32847200       1.81592888       1.91542288      -3.40520614
Fe       8.27091000       4.29855000       2.87718000       3.23308900       0.33980500       1.37352500       3.14514160       0.20256081       1.41430204
Fe       6.58774000       4.90718000       4.97515000      -1.87594500       0.58060600      -0.05143700      -2.08732287       0.49953023      -0.65575284
Fe       6.86773000       6.79187000       3.27473000       1.52763600      -2.76254700       0.67579100       1.44743649      -2.43767234       0.34174816
Fe       8.09083000       8.29691000       0.84396000      -4.18921500      -1.95965200       9.56442300      -4.34193430      -2.31452567       9.50599849
Fe       6.62133000       7.67903000       7.47205000      -3.65417600       1.51975600      -3.32990400      -3.92222015       1.32723886      -3.45607028
B        3.45077000       6.81738000       6.75435000       2.04131500      -2.79808300       3.80923700       1.88323320      -2.77935019       3.95691702
B        4.67436000       1.10514000       4.73414000       0.75036200       0.95391600      -0.52852700       0.83152649       0.87992312      -0.39944359
B        6.18153000       2.20088000       5.47737000      -4.49435700      -3.20609500      -2.27763700      -4.68884404      -3.13020090      -2.35809629
B        5.08133000       4.10197000       6.35983000       0.35152900       0.25548900      -0.65354500       0.56845542       0.35920009      -0.63832191
B        4.48663000       4.29393000       1.40792000      -0.27448100       1.04603100       0.21283300      -0.16837973       1.19763631       0.24072288
B        4.96286000       5.88068000       6.14703000       0.60492000      -1.85032800       0.29314600       0.55113101      -1.91852836       0.19309123
B        8.17242000       5.65216000       5.55863000       1.00443800       0.65677900      -0.69824300       0.96755923       0.80661573      -0.36842535
B        7.98743000       6.92663000       6.60530000       5.86774900       2.58695800      -4.05103700       5.82523326       2.39469789      -3.75892299
B        7.10769000       5.72812000       6.91109000      -2.33709700      -3.34606800       1.34633400      -2.15531651      -3.43490175       1.75327789
B        7.81665000       6.81498000       8.33858000       5.04350100      -2.41043400       0.97359300       5.14930849      -2.67467305       0.55990950
Si       0.06983000       0.14925000       7.74742000       4.12649000       2.60901100      -8.87608100       4.08802737       2.58575693      -8.70119581
Si       1.93337000       2.41223000       3.74634000      10.14534600       2.98113100     -12.18526000      10.19375170       3.08119804     -11.97813744
Si       0.75978000       6.02813000       1.69309000      -4.13401100      -0.74920300       1.02787300      -4.13284493      -0.82219616       0.96977120
Si       2.22023000       5.10313000       7.16329000      -1.58663400       1.19675500      -1.89967800      -1.63523657       1.15340567      -1.95452792
Si       3.27754000       8.17117000       8.35443000       4.04667900       4.58101600      -2.24829100       3.94480368       4.60381011      -2.41404598
Si       4.48145000       2.18337000       8.34202000      -5.72220500      -5.96162700      -4.99603400      -5.56573302      -5.97059075      -5.09907235
Si       6.36439000       4.54151000       2.12641000       2.28764700      -2.33178900       1.39384200       2.48202496      -2.10686487       1.35441890
Si       4.52267000       6.51460000       3.75633000       0.42177200       5.22743800       1.25328700       0.12614506       5.33408124       1.33092541
Si       7.68278000       0.22257000       3.11016000      -0.17295300       4.89916800      -3.86478000      -0.27477818       4.79022489      -3.96768093
Si       7.35363000       3.38410000       6.13231000       4.40786200       1.27045000       2.62604800       4.32913674       1.44876631       2.93017867
54
Lattice="8.579999685 0.0 0.0 0.0 8.579999685 0.0 0.0 0.0 8.5799996" Properties=species:S:1:pos:R:3:REF_forces:R:3:MACE_forces:R:3 config_type=Fe34B10Si10 REF_energy=-354.71875992 MACE_energy=-354.98742415736723 pbc="T T T"
Fe       0.43313000       1.19321000       2.96848000       1.47291300       2.99028000       0.61180900       1.51745842       2.97037720       0.32609765
Fe       0.91365000       1.12516000       8.09995000       2.76260400      -2.00335600       1.20968300       2.41429249      -2.08045037       1.07812741
Fe       1.17142000       2.67870000       5.23446000      -1.90323000       6.04651700       0.58026800      -1.75070047       6.09360928       0.43419910
Fe       0.60772000       3.85484000       0.87278000       2.66909500       4.89444800       4.53699300       2.51420740       4.91575875       4.13005517
Fe       1.41565000       3.44858000       3.01161000      -0.29549500       2.03729500      -0.74017400      -0.08922121       1.89458075      -0.69075026
Fe       0.04226000       2.91249000       8.09734000      -3.39897200      -2.84207300      -2.69442200      -2.77504898      -2.77165790      -2.25209639
Fe       1.33282000       7.09057000       5.22634000      -0.45239700      -1.35392500       0.92503500      -0.22559390      -1.50748136       0.96030040
Fe       2.06045000       7.92051000       0.98063000      -3.11321000      -0.30108300      -2.49280600      -3.04926027      -0.40028430      -2.33113988
Fe       2.03627000       8.24295000       3.50701000      -1.42216600       4.38122900       0.88517600      -1.43293260       4.13179656       0.66833542
Fe       0.01253000       8.02686000       7.00667000       2.58679700       0.98610200     -11.80201700       2.45940719       0.95360930     -11.84550753
Fe       3.00353000       0.57289000       6.13981000      -1.03922300       0.18357300       0.93137300      -0.83991215       0.10190472       1.00032205
Fe       3.69949000       2.65196000       7.51811000       2.76433000      -4.34399200      -3.80269000       2.60178520      -4.09964391      -3.68554143
Fe       2.94478000       6.44154000       3.03987000       7.21319500      -3.66655800      -1.17614100       7.04416488      -3.45941556      -0.99507081
Fe       2.94309000       5.75189000       6.64956000      -6.24071800      -0.74678300       3.86021800      -6.50507073      -0.66349649       3.82955635
Fe       3.71160000       8.39321000       1.86324000       2.24845700      -0.43546600       0.28887200       2.12673287      -0.18563848       0.64748178
Fe       4.07810000       8.43915000       4.32840000       2.88035800       1.28304800      -0.49181300       2.85896910       1.39575437      -0.78616528
Fe       5.57499000       0.73262000       6.31633000      -3.12774100      -1.68249800      -0.98058200      -2.81923242      -1.64280408      -0.84093707
Fe       4.70712000       1.94493000       1.65492000      -2.04675700       4.97917500      -3.67899600      -2.08473224       4.73824052      -3.55481100
Fe       4.73401000       4.18392000       1.24748000       0.71501700       1.80608500      -0.06999200       0.67909856       2.00463446      -0.11939978
Fe       4.56687000       4.22266000       4.39618000       0.73801700       3.32591500      -2.10569900       0.44479396       3.13978137      -2.18635193
Fe       4.51224000       4.61167000       7.05684000       2.53211900      -0.41024200       0.53825400       2.96304375      -0.74845870       0.48837130
Fe       6.32808000       6.81945000       4.24288000      -3.20445400      -0.33519400      -1.28892300      -2.81954563      -0.26160384      -1.13140367
Fe       6.22240000       7.17309000       0.16230000      -3.30904600      -2.75215800       1.90373500      -3.47967948      -3.07752322       2.08819158
Fe       4.54224000       7.44382000       7.03838000       0.17895600      -5.02037800      -8.74618400       0.26528427      -5.24173134      -8.92886618
Fe       4.73272000       8.55832000       8.35561000      -0.10588400       8.96287400       6.54083400      -0.16489695       9.48035988       6.22476989
Fe       7.67285000       2.82429000       2.17742000      -2.12886900      -0.76272600      -2.06587500      -2.06735128      -0.78843847      -1.99604055
Fe       6.74071000       1.77406000       4.33655000       0.47479500       0.50025500      -0.42349800       0.08124562       0.48262760      -0.50203024
Fe       7.16362000       1.61896000       6.68131000       5.11373900       1.83737400       0.70818800       4.76649517       1.69639781       0.63605764
Fe       6.73653000       4.13840000       7.84564000       0.19062300       0.32905600       3.59274800       0.09555075       0.50810305       3.64444808
Fe       6.61248000       5.35948000       2.44590000       0.96755600      -0.77403900      -0.47053600       0.85009486      -0.70210969      -0.51114862
Fe       8.39074000       4.95678000       4.82580000       0.50677700       3.21370700       1.22596300       0.55248568       3.09912611       1.11186675
Fe       6.62275000       6.29700000       6.29237000       0.91106900      -0.58785400       1.74696000       0.78132148      -0.46102037       1.61149510
Fe       8.00875000       8.14674000       2.12563000      -1.25903800      -1.94608200      -3.37077000      -0.88246910      -1.93237329      -3.38937926
Fe       7.96861000       8.10559000       4.08816000       1.24434400       0.03207600       4.40361200       0.69754925      -0.04120764       4.48170126
B        3.14587000       1.61638000       2.59818000      -3.96044800      -1.57388800      -2.24367700      -3.97471209      -1.48526696      -1.96798330
B        4.07212000       1.93087000       3.78701000       0.55534200       0.12762300      -3.25123200       0.43210088       0.06069389      -3.28373936
B        2.24412000       1.90783000       4.05913000      -1.80380000      -9.70850100      -5.48536600      -1.85642555      -9.89306276      -5.56848242
B        2.90130000       3.06657000       4.45062000       2.48509300       7.60479000      -1.50334300       2.87670890       7.37537790      -1.42155636
B        2.82587000       3.80138000       5.80651000       0.21675600       2.27927400       3.92227300       0.35778558       2.13860559       3.81352145
B        2.60929000       5.04297000       1.66311000       0.12617300      -0.77075900      -0.46531300      -0.08434882      -0.73945938      -0.34629052
B        2.47198000       4.95014000       4.32601000      -0.76752800      -1.31946700       0.35153300      -0.80499224      -1.24049326       0.27352833
B        2.73354000       7.81887000       7.66829000      -1.47869400      -0.15377200       0.00458000      -1.53477473      -0.19429687       0.16395195
B        5.68071000       2.28134000       7.79544000      -0.95924500       0.41857400       1.11780500      -0.90770320       0.34496684       1.06517368
B        7.77536000       3.70665000       3.76574000      -0.44877700      -1.48394500      -0.38974400      -0.53555582      -1.40569074      -0.02517845
Si       0.79518000       0.92195000       5.77957000      -1.66645900      -4.94136200      -1.10925300      -1.61965019      -5.13914573      -0.94728911
Si       0.88055000       4.20706000       6.73551000       1.15626000       3.58432200      -0.32349000       1.10508979       3.79099813      -0.17711308
Si       1.15025000       6.44729000       2.43826000      -7.77651300      -1.83655100      -1.54918700      -7.91370107      -1.75256614      -1.73539573
Si       2.82820000       3.29548000       0.50208000      -4.05499500       1.58525200       5.32597100      -4.14283179       1.51104348       5.27547919
Si       4.14031000       6.38272000       0.30005000      -2.16949800      -2.44928300       2.57761000      -2.18732927      -2.51408364       2.56046580
Si       3.68345000       6.43010000       5.01209000       3.98893100       0.98565200      -2.13453700       3.86011070       1.19286348      -2.07522188
Si       5.73751000       0.59059000       2.53265000       5.08228400      -4.90021500       2.23852200       5.20249408      -4.94615069       2.49892513
Si       4.51163000       2.47994000       5.36819000       2.60737700      -2.86786400       7.12589500       2.77403184      -2.64458569       6.97673956
Si       6.43436000       3.75222000       5.86206000       1.38008400       0.66155200      -3.64612400       1.59000276       0.81613080      -3.78353320
Si       8.06432000       7.52318000       8.55473000       2.36409700      -3.06603600      11.34847700       2.63536679      -2.81720096      11.08926126
18
Lattice="6.5 0.0 0.0 0.0 6.5 0.0 0.0 0.0 6.5" Properties=species:S:1:pos:R:3:REF_forces:R:3:MACE_forces:R:3 config_type=Fe12B3Si3 REF_energy=-113.87843945 MACE_energy=-113.41307625902132 pbc="T T T"
Fe       5.40234000       5.43492000       1.53729000      -1.39532100       2.04028400       0.71142300      -1.20932105       2.02423491       0.72050415
Fe       2.09750000       2.10361000       0.54730000       2.35673700      -0.33103000       1.27254800       2.51196308      -0.12315612       1.06437595
Fe       2.84360000       1.73250000       3.81271000       2.28004000      -1.18251600      -0.27344700       2.21238843      -1.06735628      -0.14642827
Fe       0.77541000       4.93717000       1.04317000       1.56096300      -3.83372900       1.76362000       1.49349756      -3.65213346       1.48481232
Fe       0.07665000       3.70431000       3.74351000      -0.75952900      -0.39175400      -2.23189700      -0.96542153      -0.39594231      -2.30012146
Fe       4.77171000       3.58949000       4.78220000      -1.99219600      -4.62409700       0.48420500      -1.81940543      -4.64001220       0.44286464
Fe       4.12430000       1.49867000       1.46476000       0.29771700      -2.38794700       0.28396300       0.32462409      -2.68743342       0.15279130
Fe       0.95387000       5.17746000       5.28728000      -0.57085000      -0.50160400      -1.80733600      -0.94003317      -0.69159945      -1.31357176
Fe       1.93602000       3.09888000       2.36598000      -0.08855100       0.43128300      -0.27209000      -0.11518290       0.61656179      -0.37705070
Fe       5.69037000       1.28357000       4.20026000      -0.40866000      -0.49067900       0.18976600      -0.62487655      -0.27785766       0.13124512
Fe       1.94321000       2.86141000       5.39871000      -0.55906500       0.73218900      -1.80086600      -0.65388979       0.84726764      -1.83804456
Fe       4.33122000       5.38124000       5.25469000      -0.73272900       4.56545400       1.52017900      -0.75407415       4.44816775       1.52682272
B        0.37598000       1.64060000       1.21420000      -3.21263000       2.85095800       0.76078000      -3.12255133       2.71399149       0.95226746
B        1.88110000       4.04794000       3.96741000       2.48956600       2.45119300      -0.32261600       2.67949796       2.27340318      -0.40630521
B        3.63878000       0.94242000       5.41981000      -0.01444500       0.67937600       0.95779200       0.15314972       0.80549353       1.01972658
Si       1.19380000       0.26963000       0.19686000       0.54051800       0.24528300      -1.93219100       0.68384907       0.03956546      -1.91779565
Si       4.57825000       3.47658000       1.16117000       0.15934200       1.26766700      -0.81102600       0.19726981       1.41571312      -0.71096228
Si       1.09558000       0.76720000       2.75124000       0.04909300      -1.52033200       1.50719200      -0.05148384      -1.64890797       1.51486965
54
Lattice="8.579999685 0.0 0.0 0.0 8.579999685 0.0 0.0 0.0 8.5799996" Properties=species:S:1:pos:R:3:REF_forces:R:3:MACE_forces:R:3 config_type=Fe34B10Si10 REF_energy=-356.0869274 MACE_energy=-356.4133590127129 pbc="T T T"
Fe       0.92877000       1.08311000       2.12831000      -0.53214900      -1.15432400       0.53007800      -0.68600007      -1.24872943       0.38458956
Fe       1.12794000       0.45096000       7.37327000      -2.86345100       2.18226700       1.45805300      -2.85869819       2.01398052       1.46222418
Fe       0.91289000       3.61082000       1.96264000      -1.66570100       0.50807500      -4.76654600      -1.66577271       0.23563533      -4.71621942
Fe       0.97242000       3.25012000       3.83975000      -0.85629000      -1.23507100      -0.91491200      -1.07832866      -1.15040780      -0.47394197
Fe       1.43574000       3.84332000       5.84621000      -1.94378300      -0.72872400       4.94145300      -2.06990412      -0.50538631       4.71372125
Fe       0.45897000       5.99881000       1.32384000       1.86679900       1.45939200      -0.33976700       1.61572306       1.56563912      -0.21394032
Fe       0.05714000       6.25044000       6.01250000       0.66851500      -0.88142700       1.67028200       0.75158155      -0.74321192       1.82191315
Fe       1.87526000       7.05991000       7.27744000      -5.90957000       6.81146600       5.95768600      -5.77484341       7.19743306       5.91827938
Fe       4.21220000       0.80536000       3.81626000       0.44958900      -1.97725700       0.54591300       0.58142391      -1.90137838       0.42944874
Fe       2.64196000       0.75311000       5.88605000       0.80305000      -0.92688600      -1.50973400       0.63872214      -1.09100266      -1.56023704
Fe       2.51735000       4.27963000       7.86001000      -0.17185400       2.88247300       0.00075600      -0.01796640       2.99425081       0.40381851
Fe       2.46175000       4.76211000       4.38544000       2.27245000       6.36429500      -0.60000700       2.27251690       6.41264234      -0.53205328
Fe       3.99132000       4.46692000       6.09268000      -0.21521200      -1.96607600      -0.25853400      -0.24370273      -2.12956168      -0.15618683
Fe       4.03283000       6.20484000       2.50717000       0.32509400      -1.83048700       1.07686200       0.45915445      -1.69281977       1.17691282
Fe       2.62183000       8.12097000       1.25125000      -5.45108600      -1.04608100      -0.88869000      -5.56265663      -1.00364811      -0.55497888
Fe       2.34208000       7.49949000       3.33705000      -1.45221900       0.10179900       1.96325000      -1.31380696       0.21982010       1.58876242
Fe       4.67554000       0.98699000       8.35162000       1.97529500       0.95938300       0.07305200       1.82596178       0.79852596       0.46730154
Fe       4.68615000       2.28426000       1.60336000       6.03713100       4.39249100       1.56082500       6.19768983       4.32150942       1.15632655
Fe       4.95897000       4.28949000       0.91503000       1.24258400       3.77490300      -1.07876200       0.60963671       3.38893339      -1.22577164
Fe       5.62605000       3.84953000       3.25301000      -4.56775200       3.43217100       2.09526400      -4.63169839       3.47006452       1.95584555
Fe       5.63153000       5.70233000       4.67966000       0.04558900       0.36352900      -0.74034800       0.13246268      -0.09335937      -0.61732054
Fe       5.00954000       6.14620000       6.89198000       4.51113600      -2.60361300       1.43664400       4.50388591      -2.43112707       1.35145349
Fe       5.34723000       7.32984000       0.56425000       3.41130600      -7.55812200      -7.44238600       3.28495030      -7.08861078      -7.31128389
Fe       4.57141000       8.20633000       1.67615000      -2.51651100       6.57056000       9.11650700      -2.57649771       6.23290849       8.71953714
Fe       5.67084000       7.83697000       6.02451000      -0.02983000       3.57151200       0.33120700      -0.08613153       3.74937343       0.40864112
Fe       7.65837000       1.05332000       0.64336000       1.95813700       2.93603900      -3.62028800       1.89663717       2.97667023      -3.49853528
Fe       7.23579000       1.49494000       3.62009000       0.88838800      -1.50203300       3.00240400       0.99040101      -1.59869247       3.01352866
Fe       6.96409000       1.59543000       6.70415000       0.40175100      -2.57633900      -0.54943900       0.53269935      -2.52793342      -0.52342398
Fe       6.97946000       3.05325000       2.27831000       3.01329100      -2.85779700      -7.80747400       2.49709409      -3.00656989      -7.17853172
Fe       7.05854000       3.62734000       7.13255000       0.94483300       2.42104600       2.56329500       1.06986989       2.45617978       2.51012173
Fe       7.47490000       4.49325000       0.92243000      -3.13561000       0.06366500       0.11142200      -2.91603376       0.42173926      -0.35567167
Fe       7.76499000       5.40883000       4.05655000       3.42051700      -2.49950500       1.10150300       3.46582281      -2.65961511       1.15629705
Fe       6.91686000       6.16423000       2.38917000      -4.34160700       0.52717700      -3.24358900      -4.27604269       0.65355072      -3.16845230
Fe       7.31773000       7.39473000       4.73130000      -1.41907300       3.06948200       1.38572900      -1.38022938       3.07400467       1.27807131
B        1.63947000       5.44017000       2.85377000      -1.37965300       1.67099600      -0.34434500      -1.41596407       1.75775639      -0.56865150
B        3.47444000       1.29905000       1.69513000      -6.04542900      -7.46227000      -1.52467000      -5.88635202      -7.27775699      -1.20651226
B        2.31673000       1.42955000       3.77944000      -1.85652800      -2.14982900       3.21956500      -1.78684532      -1.96649600       3.51818696
B        3.17088000       0.01260000       8.16689000      -2.14308300      -0.12737100      -3.63430700      -2.13407167       0.04668179      -3.56393716
B        2.48887000       2.23189000       2.44876000      -1.30373000       3.96631200      -0.94871100      -0.85948471       3.91232426      -1.24769578
B        3.55016000       3.21990000       0.17024000       2.13469500      -3.52588700       0.23974700       2.07142362      -3.41925845       0.14192417
B        3.12966000       3.07291000       4.24572000      -6.99085300       0.34377600      -0.16579100      -7.16644166      -0.00987424      -0.35985804
B        2.38358000       5.95301000       6.34325000       2.25901800      -8.76611800      -6.31465800       2.26137985      -9.20551488      -6.49874141
B        4.46260000       2.62992000       4.23823000       7.08507900      -1.75449200       0.40993300       7.23377629      -1.67611657       0.45138021
B        7.51183000       3.59374000       3.85724000       1.49621300      -1.20378300       3.39561400       1.50708265      -1.11692417       3.34102924
Si       0.50050000       1.66927000       5.10425000      -1.02554400      -2.67263500       2.61432900      -0.87307381      -2.95228882       2.47862372
Si       0.41923000       4.50138000       8.15701000       0.82744200      -0.47721100      -2.57541600       1.09548631      -0.52317158      -2.80812056
Si       2.90131000       4.25049000       1.93860000       2.71957100       0.04497600      -0.88170100       2.95452001      -0.07513557      -1.15003615
Si       3.74353000       6.85388000       5.19884000      -1.20766000       1.80214700      -2.20114300      -1.10530431       1.91262879      -2.19818536
Si       3.54209000       6.47938000       8.21357000      -0.45014500      -1.75854100       4.24377300      -0.58729951      -1.98595546       4.43579428
Si       4.55252000       1.74669000       6.40118000       0.28733400       0.20348600      -1.69136000       0.28089777       0.18096155      -1.74972767
Si       5.87020000       3.30923000       5.41310000       1.93974000       0.55942400      -1.14043100       1.55967888       0.72252106      -1.20564262
Si       6.68392000       0.09389000       2.07850000      -2.78148600      -1.30329400       2.70552900      -2.45715123      -1.20580921       2.84306852
Si       7.30980000       7.36953000       0.08595000       4.18267400      -0.22507900      -1.67891000       4.12367260      -0.46486491      -1.65062786
Si       8.41387000       7.50606000       2.97540000       5.08859000       1.78741200      -0.88875800       4.99615014       2.03548608      -0.83251612
54
Lattice="8.579999685 0.0 0.0 0.0 8.579999685 0.0 0.0 0.0 8.5799996" Properties=species:S:1:pos:R:3:REF_forces:R:3:MACE_forces:R:3 config_type=Fe34B10Si10 REF_energy=-359.84864784 MACE_energy=-359.9112221518101 pbc="T T T"
Fe       0.39531000       2.37288000       0.87042000       3.27925500       2.43832800      -1.60261100       3.24666716       2.51836397      -1.72177678
Fe       0.75383000       1.65209000       3.11094000       1.30783500      -0.34615400      -0.09267000       1.25482616      -0.77023853       0.24160515
Fe       1.33201000       3.79282000       7.26231000      -2.40668100      -1.18131200       0.32245500      -2.55842086      -1.05128502       0.14267703
Fe       0.64436000       4.41396000       2.97573000       2.42004200      -2.26182600       0.38963900       2.46980282      -2.02541815       0.21070121
Fe       0.14751000       6.42079000       3.51005000      -3.07002100       1.32407200      -2.30638400      -3.10176123       1.38556926      -2.55753445