54
Lattice="8.579999685 0.0 0.0 0.0 8.579999685 0.0 0.0 0.0 8.5799996" Properties=species:S:1:pos:R:3:REF_forces:R:3:MACE_forces:R:3 config_type=Fe34B10Si10 REF_energy=-352.89092233 MACE_energy=-352.9721072559668 pbc="T T T"
Fe       1.46495000       0.71583000       1.12880000       3.73230100      -3.41607500      -3.76209700       3.66001821      -3.41804308      -3.52191677
Fe       0.56244000       2.07917000       1.96452000      -3.31290700       4.06628900       2.54508600      -3.25294123       3.92129945       2.27221803
Fe       0.86636000       2.12990000       5.00906000     -10.85567700      -2.87102900      12.20968700     -10.89134267      -2.94689069      12.20512742
Fe       0.24697000       2.61233000       7.83061000      -0.37811800      -2.03816900      -0.08744800      -0.40579933      -1.92053683       0.06039140
Fe       0.35437000       4.66395000       8.16447000      -1.30300600       1.62250000       0.84662400      -1.37364900       1.67384791       0.80643113
Fe       0.83543000       8.00840000       3.01492000       5.54921000      -2.55787300       0.52513800       5.70727044      -2.54610559       0.42648202
Fe       2.03952000       7.84431000       6.63062000      -4.28706100       1.82495200      -1.68802900      -4.13267944       1.99580114      -1.65310686
Fe       3.34318000       0.11090000       2.96052000      -0.46571400      -0.35056300       0.37864800      -0.50849104      -0.23091862       0.47102139
Fe       3.26317000       2.11539000       1.48699000      -3.47884800      -0.03222100       0.61542300      -3.36895597      -0.27069285       0.22032646
Fe       4.14313000       2.75755000       3.31065000      -0.71378000      -2.73118300       1.93004800      -0.62050397      -2.45937080       1.90317326
Fe       2.55051000       2.67374000       7.19710000      -2.55215900      -0.93589000       1.77261600      -2.29780770      -1.09483088       1.71302958
Fe       3.61327000       2.86500000       5.46497000       1.55763200       0.20514300      -0.56676300       1.47765407       0.27421081      -0.31525632
Fe       2.62400000       4.72550000       1.39174000      -1.08585200      -1.19598700       0.59645400      -1.39136014      -0.95945473       0.70785706
Fe       2.20317000       5.21693000       3.87451000      -3.92870900      -4.38103900      -4.92199500      -3.88664024      -4.33051501      -4.98309646
Fe       3.93082000       4.37819000       8.08226000       1.07616800       0.44807800      -0.99700400       0.98346531       0.28330942      -0.98342669
Fe       2.44961000       7.01753000       1.08943000       0.32119000      -1.55635000       3.27006500       0.40681191      -1.59513018       3.30281704
Fe       3.02500000       6.15780000       5.08193000      -1.08486800       1.64126100       3.95415400      -0.53061129       1.67770728       4.04836208
Fe       5.77712000       0.44616000       0.16142000      -2.43333700       0.07175000       4.13474700      -2.47289838       0.41975886       4.21062126
Fe       5.66964000       0.14892000       2.95259000      -3.67617900       1.90971100       0.12919700      -3.70682229       1.62930945       0.31638642
Fe       5.39484000       2.66317000       1.55162000       4.08183700      -3.39937100       3.88213200       4.05951285      -3.69839538       4.07249541
Fe       5.91309000       3.40423000       8.31953000       8.90196200       5.48305700      -2.72562400       8.68084379       5.38541051      -2.64515170
Fe       4.96126000       4.63305000       3.41410000      -3.60269200      -2.00302700       2.25051900      -3.75077145      -2.22141057       2.43733734
Fe       5.11347000       6.81217000       1.78872000      -0.87770500       0.06714300      -1.61156800      -0.71828563       0.06802044      -1.59773938
Fe       5.00950000       6.45991000       8.24507000      -2.30619500      -0.19808200      -1.52355700      -2.31552933       0.02138113      -1.73563480
Fe       4.64263000       7.71190000       5.75084000       2.50156800       4.23919200      -1.55456800       2.56123799       4.34615977      -1.62586809
Fe       7.32285000       0.33022000       5.03535000      -0.99210900      -0.59745100       4.73628300      -1.01001138      -0.35786852       4.78804678
Fe       6.75330000       1.32958000       7.05071000       0.53851300       2.01290400       0.36400700       0.53335724       1.84097943       0.36061094
Fe       6.82686000       2.53028000       3.66692000      -0.08907100      -0.12987400      -0.26318300      -0.02746244      -0.19279420      -0.24499456
Fe       6.83617000       5.56618000       0.59386000       1.74434500       1.47371700      -3.32847200       1.84506967       1.65820787      -3.51570329
Fe       8.27091000       4.29855000       2.87718000       3.23308900       0.33980500       1.37352500       3.19877230       0.18877229       1.31294327
Fe       6.58774000       4.90718000       4.97515000      -1.87594500       0.58060600      -0.05143700      -2.12282211       0.64819241      -0.41740735
Fe       6.86773000       6.79187000       3.27473000       1.52763600      -2.76254700       0.67579100       1.39118650      -2.46243654       0.34907833
Fe       8.09083000       8.29691000       0.84396000      -4.18921500      -1.95965200       9.56442300      -4.11540799      -2.30074943       9.65871772
Fe       6.62133000       7.67903000       7.47205000      -3.65417600       1.51975600      -3.32990400      -3.95902348       1.24704589      -3.47211651
B        3.45077000       6.81738000       6.75435000       2.04131500      -2.79808300       3.80923700       1.95816926      -2.80358497       4.00214941
B        4.67436000       1.10514000       4.73414000       0.75036200       0.95391600      -0.52852700       0.82845876       0.92719821      -0.46049545
B        6.18153000       2.20088000       5.47737000      -4.49435700      -3.20609500      -2.27763700      -4.74507800      -3.15453482      -2.52034978
B        5.08133000       4.10197000       6.35983000       0.35152900       0.25548900      -0.65354500       0.54582255       0.30007728      -0.56399187
B        4.48663000       4.29393000       1.40792000      -0.27448100       1.04603100       0.21283300      -0.26404061       1.23497601       0.14486593
B        4.96286000       5.88068000       6.14703000       0.60492000      -1.85032800       0.29314600       0.56271926      -1.95072346       0.15985150
B        8.17242000       5.65216000       5.55863000       1.00443800       0.65677900      -0.69824300       1.06472985       0.66887389      -0.30426438
B        7.98743000       6.92663000       6.60530000       5.86774900       2.58695800      -4.05103700       5.85756393       2.40504544      -3.65683904
B        7.10769000       5.72812000       6.91109000      -2.33709700      -3.34606800       1.34633400      -2.23513621      -3.44049145       1.39393342
B        7.81665000       6.81498000       8.33858000       5.04350100      -2.41043400       0.97359300       5.13935181      -2.46299487       0.66276856
Si       0.06983000       0.14925000       7.74742000       4.12649000       2.60901100      -8.87608100       3.98886783       2.62628692      -8.86030667
Si       1.93337000       2.41223000       3.74634000      10.14534600       2.98113100     -12.18526000      10.22809173       3.07088069     -12.02018477
Si       0.75978000       6.02813000       1.69309000      -4.13401100      -0.74920300       1.02787300      -4.11456493      -0.87692009       0.97943879
Si       2.22023000       5.10313000       7.16329000      -1.58663400       1.19675500      -1.89967800      -1.76332321       1.13412928      -1.93868092
Si       3.27754000       8.17117000       8.35443000       4.04667900       4.58101600      -2.24829100       3.90500191       4.55292737      -2.42056131
Si       4.48145000       2.18337000       8.34202000      -5.72220500      -5.96162700      -4.99603400      -5.50374407      -5.82359253      -5.20306939
Si       6.36439000       4.54151000       2.12641000       2.28764700      -2.33178900       1.39384200       2.59070925      -2.22047043       1.30091953
Si       4.52267000       6.51460000       3.75633000       0.42177200       5.22743800       1.25328700       0.13208564       5.33230446       1.34502991
Si       7.68278000       0.22257000       3.11016000      -0.17295300       4.89916800      -3.86478000      -0.25439373       4.81887583      -3.96043840
Si       7.35363000       3.38410000       6.13231000       4.40786200       1.27045000       2.62604800       4.43332521       1.38846706       2.98816938
54
Lattice="8.579999685 0.0 0.0 0.0 8.579999685 0.0 0.0 0.0 8.5799996" Properties=species:S:1:pos:R:3:REF_forces:R:3:MACE_forces:R:3 config_type=Fe34B10Si10 REF_energy=-354.71875992 MACE_energy=-355.1427243124694 pbc="T T T"
Fe       0.43313000       1.19321000       2.96848000       1.47291300       2.99028000       0.61180900       1.63121044       2.98182965       0.37412938
Fe       0.91365000       1.12516000       8.09995000       2.76260400      -2.00335600       1.20968300       2.45813797      -1.98618892       1.08596920
Fe       1.17142000       2.67870000       5.23446000      -1.90323000       6.04651700       0.58026800      -1.69290845       6.26561155       0.60382762
Fe       0.60772000       3.85484000       0.87278000       2.66909500       4.89444800       4.53699300       2.64597522       5.12158579       4.16502397
Fe       1.41565000       3.44858000       3.01161000      -0.29549500       2.03729500      -0.74017400      -0.20122598       1.89953721      -0.70129576
Fe       0.04226000       2.91249000       8.09734000      -3.39897200      -2.84207300      -2.69442200      -2.92872093      -2.85102068      -2.36007845
Fe       1.33282000       7.09057000       5.22634000      -0.45239700      -1.35392500       0.92503500      -0.28557935      -1.49552862       0.86473422
Fe       2.06045000       7.92051000       0.98063000      -3.11321000      -0.30108300      -2.49280600      -3.24185989      -0.47410881      -2.32698544
Fe       2.03627000       8.24295000       3.50701000      -1.42216600       4.38122900       0.88517600      -1.57338949       4.18955087       0.56962497
Fe       0.01253000       8.02686000       7.00667000       2.58679700       0.98610200     -11.80201700       2.51868917       0.82733388     -11.94570076
Fe       3.00353000       0.57289000       6.13981000      -1.03922300       0.18357300       0.93137300      -0.73005850       0.03214491       1.07811700
Fe       3.69949000       2.65196000       7.51811000       2.76433000      -4.34399200      -3.80269000       2.58693232      -4.17842314      -3.65384348
Fe       2.94478000       6.44154000       3.03987000       7.21319500      -3.66655800      -1.17614100       7.13152097      -3.42992933      -1.01087741
Fe       2.94309000       5.75189000       6.64956000      -6.24071800      -0.74678300       3.86021800      -6.49328171      -0.72971231       3.95681140
Fe       3.71160000       8.39321000       1.86324000       2.24845700      -0.43546600       0.28887200       2.38479671      -0.23555187       0.54044989
Fe       4.07810000       8.43915000       4.32840000       2.88035800       1.28304800      -0.49181300       2.92269435       1.41137889      -0.79752133
Fe       5.57499000       0.73262000       6.31633000      -3.12774100      -1.68249800      -0.98058200      -2.82090250      -1.70602185      -0.97909438
Fe       4.70712000       1.94493000       1.65492000      -2.04675700       4.97917500      -3.67899600      -2.09771572       4.86667251      -3.47281350
Fe       4.73401000       4.18392000       1.24748000       0.71501700       1.80608500      -0.06999200       0.68959194       1.94767268      -0.12913215
Fe       4.56687000       4.22266000       4.39618000       0.73801700       3.32591500      -2.10569900       0.58159895       3.41577859      -2.26753476
Fe       4.51224000       4.61167000       7.05684000       2.53211900      -0.41024200       0.53825400       2.94709139      -0.68523976       0.59866428
Fe       6.32808000       6.81945000       4.24288000      -3.20445400      -0.33519400      -1.28892300      -2.81478449      -0.23465063      -1.05962699
Fe       6.22240000       7.17309000       0.16230000      -3.30904600      -2.75215800       1.90373500      -3.50239801      -2.97844830       1.99783957
Fe       4.54224000       7.44382000       7.03838000       0.17895600      -5.02037800      -8.74618400       0.20985338      -5.22276989      -8.72722488
Fe       4.73272000       8.55832000       8.35561000      -0.10588400       8.96287400       6.54083400      -0.27087846       9.24773361       6.14368624
Fe       7.67285000       2.82429000       2.17742000      -2.12886900      -0.76272600      -2.06587500      -2.14083579      -0.77350081      -1.92306966
Fe       6.74071000       1.77406000       4.33655000       0.47479500       0.50025500      -0.42349800       0.10089660       0.46994989      -0.48905985
Fe       7.16362000       1.61896000       6.68131000       5.11373900       1.83737400       0.70818800       4.77664065       1.62278451       0.61355793
Fe       6.73653000       4.13840000       7.84564000       0.19062300       0.32905600       3.59274800       0.31455085       0.45511044       3.64621735
Fe       6.61248000       5.35948000       2.44590000       0.96755600      -0.77403900      -0.47053600       0.87174335      -0.75386291      -0.43797213
Fe       8.39074000       4.95678000       4.82580000       0.50677700       3.21370700       1.22596300       0.58586652       3.19016999       1.08842551
Fe       6.62275000       6.29700000       6.29237000       0.91106900      -0.58785400       1.74696000       0.85397338      -0.47295327       1.53830236
Fe       8.00875000       8.14674000       2.12563000      -1.25903800      -1.94608200      -3.37077000      -0.86442235      -1.94097555      -3.51185052
Fe       7.96861000       8.10559000       4.08816000       1.24434400       0.03207600       4.40361200       0.64122424      -0.02315144       4.60064458
B        3.14587000       1.61638000       2.59818000      -3.96044800      -1.57388800      -2.24367700      -4.11194152      -1.54930152      -2.20449678
B        4.07212000       1.93087000       3.78701000       0.55534200       0.12762300      -3.25123200       0.40343794       0.05237190      -3.28932363
B        2.24412000       1.90783000       4.05913000      -1.80380000      -9.70850100      -5.48536600      -1.95519948      -9.96603766      -5.58357337
B        2.90130000       3.06657000       4.45062000       2.48509300       7.60479000      -1.50334300       2.78787260       7.26875187      -1.43184191
B        2.82587000       3.80138000       5.80651000       0.21675600       2.27927400       3.92227300       0.24730394       2.14387707       3.93654665
B        2.60929000       5.04297000       1.66311000       0.12617300      -0.77075900      -0.46531300      -0.00662068      -0.98142215      -0.50606213
B        2.47198000       4.95014000       4.32601000      -0.76752800      -1.31946700       0.35153300      -0.88959040      -1.20759485       0.42722592
B        2.73354000       7.81887000       7.66829000      -1.47869400      -0.15377200       0.00458000      -1.46387063      -0.14727702       0.09043485
B        5.68071000       2.28134000       7.79544000      -0.95924500       0.41857400       1.11780500      -1.05600549       0.38494569       1.11312675
B        7.77536000       3.70665000       3.76574000      -0.44877700      -1.48394500      -0.38974400      -0.48286642      -1.41718402      -0.18562559
Si       0.79518000       0.92195000       5.77957000      -1.66645900      -4.94136200      -1.10925300      -1.63487409      -5.01527790      -0.96479169
Si       0.88055000       4.20706000       6.73551000       1.15626000       3.58432200      -0.32349000       1.13420571       3.67999609      -0.31779469
Si       1.15025000       6.44729000       2.43826000      -7.77651300      -1.83655100      -1.54918700      -7.82021689      -1.72432268      -1.74709284
Si       2.82820000       3.29548000       0.50208000      -4.05499500       1.58525200       5.32597100      -4.11784073       1.43235800       5.30416428
Si       4.14031000       6.38272000       0.30005000      -2.16949800      -2.44928300       2.57761000      -2.31787534      -2.32843677       2.45755648
Si       3.68345000       6.43010000       5.01209000       3.98893100       0.98565200      -2.13453700       3.93381552       1.21322870      -2.08182149
Si       5.73751000       0.59059000       2.53265000       5.08228400      -4.90021500       2.23852200       5.15359658      -4.92637161       2.48604464
Si       4.51163000       2.47994000       5.36819000       2.60737700      -2.86786400       7.12589500       2.80407917      -2.59552473       7.29359600
Si       6.43436000       3.75222000       5.86206000       1.38008400       0.66155200      -3.64612400       1.51385310       0.66348252      -3.78192015
Si       8.06432000       7.52318000       8.55473000       2.36409700      -3.06603600      11.34847700       2.68471033      -2.75306778      11.31330468
18
Lattice="6.5 0.0 0.0 0.0 6.5 0.0 0.0 0.0 6.5" Properties=species:S:1:pos:R:3:REF_forces:R:3:MACE_forces:R:3 config_type=Fe12B3Si3 REF_energy=-113.87843945 MACE_energy=-112.23141898096966 pbc="T T T"
Fe       5.40234000       5.43492000       1.53729000      -1.39532100       2.04028400       0.71142300      -1.16844734       1.99901518       0.78081825
Fe       2.09750000       2.10361000       0.54730000       2.35673700      -0.33103000       1.27254800       2.61736948      -0.18416138       1.48161075
Fe       2.84360000       1.73250000       3.81271000       2.28004000      -1.18251600      -0.27344700       2.21170857      -1.01541067      -0.33866492
Fe       0.77541000       4.93717000       1.04317000       1.56096300      -3.83372900       1.76362000       1.45154582      -3.59208266       1.57711375
Fe       0.07665000       3.70431000       3.74351000      -0.75952900      -0.39175400      -2.23189700      -1.04415490      -0.50985182      -2.31344721
Fe       4.77171000       3.58949000       4.78220000      -1.99219600      -4.62409700       0.48420500      -1.73707162      -4.54717886       0.39848815
Fe       4.12430000       1.49867000       1.46476000       0.29771700      -2.38794700       0.28396300       0.30678612      -2.70972651       0.15728573
Fe       0.95387000       5.17746000       5.28728000      -0.57085000      -0.50160400      -1.80733600      -0.85665178      -0.67103214      -1.31833792
Fe       1.93602000       3.09888000       2.36598000      -0.08855100       0.43128300      -0.27209000      -0.24031718       0.50284167      -0.48842058
Fe       5.69037000       1.28357000       4.20026000      -0.40866000      -0.49067900       0.18976600      -0.77966520      -0.36498172       0.26512636
Fe       1.94321000       2.86141000       5.39871000      -0.55906500       0.73218900      -1.80086600      -0.55468556       0.85148643      -2.10317479
Fe       4.33122000       5.38124000       5.25469000      -0.73272900       4.56545400       1.52017900      -0.62876750       4.42647136       1.57164464
B        0.37598000       1.64060000       1.21420000      -3.21263000       2.85095800       0.76078000      -3.11320934       2.83472904       0.91659590
B        1.88110000       4.04794000       3.96741000       2.48956600       2.45119300      -0.32261600       2.59769647       2.39788795      -0.32727557
B        3.63878000       0.94242000       5.41981000      -0.01444500       0.67937600       0.95779200       0.08596021       0.79700988       1.06379274
Si       1.19380000       0.26963000       0.19686000       0.54051800       0.24528300      -1.93219100       0.64471563       0.02550379      -1.89905955
Si       4.57825000       3.47658000       1.16117000       0.15934200       1.26766700      -0.81102600       0.24432955       1.42467747      -0.75807077
Si       1.09558000       0.76720000       2.75124000       0.04909300      -1.52033200       1.50719200      -0.03714143      -1.66519701       1.33397505
54
Lattice="8.579999685 0.0 0.0 0.0 8.579999685 0.0 0.0 0.0 8.5799996" Properties=species:S:1:pos:R:3:REF_forces:R:3:MACE_forces:R:3 config_type=Fe34B10Si10 REF_energy=-356.0869274 MACE_energy=-356.83896196305045 pbc="T T T"
Fe       0.92877000       1.08311000       2.12831000      -0.53214900      -1.15432400       0.53007800      -0.67379372      -1.18274395       0.41936776
Fe       1.12794000       0.45096000       7.37327000      -2.86345100       2.18226700       1.45805300      -2.74061978       1.99539418       1.41384103
Fe       0.91289000       3.61082000       1.96264000      -1.66570100       0.50807500      -4.76654600      -1.61564122       0.24971337      -4.68748139
Fe       0.97242000       3.25012000       3.83975000      -0.85629000      -1.23507100      -0.91491200      -1.17115740      -1.11259344      -0.44870708
Fe       1.43574000       3.84332000       5.84621000      -1.94378300      -0.72872400       4.94145300      -2.04983931      -0.56945470       4.80261224
Fe       0.45897000       5.99881000       1.32384000       1.86679900       1.45939200      -0.33976700       1.70256581       1.47181509      -0.14112438
Fe       0.05714000       6.25044000       6.01250000       0.66851500      -0.88142700       1.67028200       0.60016966      -0.74763121       1.65298419
Fe       1.87526000       7.05991000       7.27744000      -5.90957000       6.81146600       5.95768600      -5.67631507       7.04692239       5.81931320
Fe       4.21220000       0.80536000       3.81626000       0.44958900      -1.97725700       0.54591300       0.54687033      -1.87727741       0.45091241
Fe       2.64196000       0.75311000       5.88605000       0.80305000      -0.92688600      -1.50973400       0.48828571      -1.07491328      -1.45789821
Fe       2.51735000       4.27963000       7.86001000      -0.17185400       2.88247300       0.00075600      -0.15864834       3.00169840       0.03619425
Fe       2.46175000       4.76211000       4.38544000       2.27245000       6.36429500      -0.60000700       2.32933721       6.37867246      -0.54746194
Fe       3.99132000       4.46692000       6.09268000      -0.21521200      -1.96607600      -0.25853400      -0.24682634      -2.20871952      -0.18669613
Fe       4.03283000       6.20484000       2.50717000       0.32509400      -1.83048700       1.07686200       0.44926498      -1.75507557       1.05594333
Fe       2.62183000       8.12097000       1.25125000      -5.45108600      -1.04608100      -0.88869000      -5.51924975      -1.12762099      -0.67948325
Fe       2.34208000       7.49949000       3.33705000      -1.45221900       0.10179900       1.96325000      -1.31301456       0.10371821       1.64079598
Fe       4.67554000       0.98699000       8.35162000       1.97529500       0.95938300       0.07305200       1.73330874       0.90750890       0.30906045
Fe       4.68615000       2.28426000       1.60336000       6.03713100       4.39249100       1.56082500       6.22824793       4.34124023       1.08105205
Fe       4.95897000       4.28949000       0.91503000       1.24258400       3.77490300      -1.07876200       0.81332502       3.59440240      -1.17585552
Fe       5.62605000       3.84953000       3.25301000      -4.56775200       3.43217100       2.09526400      -4.59279430       3.47238508       1.85984499
Fe       5.63153000       5.70233000       4.67966000       0.04558900       0.36352900      -0.74034800       0.11158929      -0.03419100      -0.59633069
Fe       5.00954000       6.14620000       6.89198000       4.51113600      -2.60361300       1.43664400       4.55822991      -2.46822420       1.33064377
Fe       5.34723000       7.32984000       0.56425000       3.41130600      -7.55812200      -7.44238600       3.33118627      -7.06144451      -7.07396926
Fe       4.57141000       8.20633000       1.67615000      -2.51651100       6.57056000       9.11650700      -2.49801009       6.05548164       8.77703045
Fe       5.67084000       7.83697000       6.02451000      -0.02983000       3.57151200       0.33120700      -0.06979257       3.65190223       0.40856553
Fe       7.65837000       1.05332000       0.64336000       1.95813700       2.93603900      -3.62028800       1.85242604       2.83891026      -3.45443360
Fe       7.23579000       1.49494000       3.62009000       0.88838800      -1.50203300       3.00240400       1.04711917      -1.44073663       2.98528689
Fe       6.96409000       1.59543000       6.70415000       0.40175100      -2.57633900      -0.54943900       0.46516004      -2.45781295      -0.52920284
Fe       6.97946000       3.05325000       2.27831000       3.01329100      -2.85779700      -7.80747400       2.57231288      -2.91661300      -7.34469280
Fe       7.05854000       3.62734000       7.13255000       0.94483300       2.42104600       2.56329500       1.01292167       2.36722081       2.39708925
Fe       7.47490000       4.49325000       0.92243000      -3.13561000       0.06366500       0.11142200      -2.84000276       0.40136153      -0.12304310
Fe       7.76499000       5.40883000       4.05655000       3.42051700      -2.49950500       1.10150300       3.52720571      -2.63078594       1.13273221
Fe       6.91686000       6.16423000       2.38917000      -4.34160700       0.52717700      -3.24358900      -4.32880847       0.78949536      -3.22601312
Fe       7.31773000       7.39473000       4.73130000      -1.41907300       3.06948200       1.38572900      -1.41636840       2.95379992       1.35161198
B        1.63947000       5.44017000       2.85377000      -1.37965300       1.67099600      -0.34434500      -1.49237087       1.72073695      -0.57691488
B        3.47444000       1.29905000       1.69513000      -6.04542900      -7.46227000      -1.52467000      -6.07337072      -6.95090331      -1.23647166
B        2.31673000       1.42955000       3.77944000      -1.85652800      -2.14982900       3.21956500      -1.78839879      -1.97668991       3.37885201
B        3.17088000       0.01260000       8.16689000      -2.14308300      -0.12737100      -3.63430700      -2.07635169       0.12397438      -3.51664149
B        2.48887000       2.23189000       2.44876000      -1.30373000       3.96631200      -0.94871100      -0.91424547       3.79859790      -1.24759521
B        3.55016000       3.21990000       0.17024000       2.13469500      -3.52588700       0.23974700       2.12929920      -3.55590957       0.38203110
B        3.12966000       3.07291000       4.24572000      -6.99085300       0.34377600      -0.16579100      -6.96534568       0.14640770      -0.19082282
B        2.38358000       5.95301000       6.34325000       2.25901800      -8.76611800      -6.31465800       2.10497680      -9.05200599      -6.41084794
B        4.46260000       2.62992000       4.23823000       7.08507900      -1.75449200       0.40993300       7.03926498      -1.86416361       0.40324492
B        7.51183000       3.59374000       3.85724000       1.49621300      -1.20378300       3.39561400       1.51317148      -1.04395690       3.22519069
Si       0.50050000       1.66927000       5.10425000      -1.02554400      -2.67263500       2.61432900      -0.78347467      -2.97921633       2.61663107
Si       0.41923000       4.50138000       8.15701000       0.82744200      -0.47721100      -2.57541600       1.08587165      -0.42311441      -2.77563281
Si       2.90131000       4.25049000       1.93860000       2.71957100       0.04497600      -0.88170100       2.74961626      -0.00991976      -1.05230247
Si       3.74353000       6.85388000       5.19884000      -1.20766000       1.80214700      -2.20114300      -1.07326665       1.92955912      -2.10978425
Si       3.54209000       6.47938000       8.21357000      -0.45014500      -1.75854100       4.24377300      -0.61045357      -2.05601228       4.40160608
Si       4.55252000       1.74669000       6.40118000       0.28733400       0.20348600      -1.69136000       0.25681352       0.19453773      -1.61253630
Si       5.87020000       3.30923000       5.41310000       1.93974000       0.55942400      -1.14043100       1.67500160       0.83371674      -1.16089383
Si       6.68392000       0.09389000       2.07850000      -2.78148600      -1.30329400       2.70552900      -2.57383836      -1.24400383       2.82623529
Si       7.30980000       7.36953000       0.08595000       4.18267400      -0.22507900      -1.67891000       4.32541756      -0.42845621      -1.75149235
Si       8.41387000       7.50606000       2.97540000       5.08859000       1.78741200      -0.88875800       5.01303915       1.88101742      -0.84434381
54
Lattice="8.579999685 0.0 0.0 0.0 8.579999685 0.0 0.0 0.0 8.5799996" Properties=species:S:1:pos:R:3:REF_forces:R:3:MACE_forces:R:3 config_type=Fe34B10Si10 REF_energy=-359.84864784 MACE_energy=-360.22689183878543 pbc="T T T"
Fe       0.39531000       2.37288000       0.87042000       3.27925500       2.43832800      -1.60261100       3.17430381       2.69207018      -1.74353461
Fe       0.75383000       1.65209000       3.11094000       1.30783500      -0.34615400      -0.09267000       1.32034822      -0.80163498       0.04255774
Fe       1.33201000       3.79282000       7.26231000      -2.40668100      -1.18131200       0.32245500      -2.48154144      -1.15539124       0.24202713
Fe       0.64436000       4.41396000       2.97573000       2.42004200      -2.26182600       0.38963900       2.46945085      -2.06217667       0.24370781
Fe       0.14751000       6.42079000       3.51005000      -3.07002100       1.32407200      -2.30638400      -3.12602670       1.31168880      -2.44857472