54
Lattice="8.579999685 0.0 0.0 0.0 8.579999685 0.0 0.0 0.0 8.5799996" Properties=species:S:1:pos:R:3:REF_forces:R:3:MACE_forces:R:3 config_type=Fe34B10Si10 REF_energy=-352.89092233 MACE_energy=-353.1386742188968 pbc="T T T"
Fe       1.46495000       0.71583000       1.12880000       3.73230100      -3.41607500      -3.76209700       3.65682288      -3.42156983      -3.50521938
Fe       0.56244000       2.07917000       1.96452000      -3.31290700       4.06628900       2.54508600      -3.28140885       3.93688527       2.25133966
Fe       0.86636000       2.12990000       5.00906000     -10.85567700      -2.87102900      12.20968700     -10.85167650      -2.92975402      12.16474015
Fe       0.24697000       2.61233000       7.83061000      -0.37811800      -2.03816900      -0.08744800      -0.40552786      -1.95979292       0.06493394
Fe       0.35437000       4.66395000       8.16447000      -1.30300600       1.62250000       0.84662400      -1.36845144       1.71172492       0.80804122
Fe       0.83543000       8.00840000       3.01492000       5.54921000      -2.55787300       0.52513800       5.71281601      -2.54219711       0.43702947
Fe       2.03952000       7.84431000       6.63062000      -4.28706100       1.82495200      -1.68802900      -4.15751076       2.02055877      -1.66848648
Fe       3.34318000       0.11090000       2.96052000      -0.46571400      -0.35056300       0.37864800      -0.52046534      -0.22801117       0.45760970
Fe       3.26317000       2.11539000       1.48699000      -3.47884800      -0.03222100       0.61542300      -3.36002427      -0.25614776       0.21614629
Fe       4.14313000       2.75755000       3.31065000      -0.71378000      -2.73118300       1.93004800      -0.61719935      -2.48350100       1.92384443
Fe       2.55051000       2.67374000       7.19710000      -2.55215900      -0.93589000       1.77261600      -2.28993716      -1.06440887       1.72002896
Fe       3.61327000       2.86500000       5.46497000       1.55763200       0.20514300      -0.56676300       1.47858779       0.26917923      -0.31689185
Fe       2.62400000       4.72550000       1.39174000      -1.08585200      -1.19598700       0.59645400      -1.40920591      -0.97005520       0.72015304
Fe       2.20317000       5.21693000       3.87451000      -3.92870900      -4.38103900      -4.92199500      -3.92922404      -4.34615529      -5.03694485
Fe       3.93082000       4.37819000       8.08226000       1.07616800       0.44807800      -0.99700400       0.96511149       0.27029751      -0.98600416
Fe       2.44961000       7.01753000       1.08943000       0.32119000      -1.55635000       3.27006500       0.39650260      -1.58176633       3.29827436
Fe       3.02500000       6.15780000       5.08193000      -1.08486800       1.64126100       3.95415400      -0.43236897       1.73884446       4.09509977
Fe       5.77712000       0.44616000       0.16142000      -2.43333700       0.07175000       4.13474700      -2.45521712       0.42080235       4.22164816
Fe       5.66964000       0.14892000       2.95259000      -3.67617900       1.90971100       0.12919700      -3.70330603       1.63599165       0.31095382
Fe       5.39484000       2.66317000       1.55162000       4.08183700      -3.39937100       3.88213200       4.05629222      -3.71133853       4.11193328
Fe       5.91309000       3.40423000       8.31953000       8.90196200       5.48305700      -2.72562400       8.68648865       5.36429106      -2.70228534
Fe       4.96126000       4.63305000       3.41410000      -3.60269200      -2.00302700       2.25051900      -3.74695511      -2.22949507       2.46495415
Fe       5.11347000       6.81217000       1.78872000      -0.87770500       0.06714300      -1.61156800      -0.74130286       0.08987191      -1.61062055
Fe       5.00950000       6.45991000       8.24507000      -2.30619500      -0.19808200      -1.52355700      -2.33456373       0.02476287      -1.77863203
Fe       4.64263000       7.71190000       5.75084000       2.50156800       4.23919200      -1.55456800       2.56261736       4.35657032      -1.65684042
Fe       7.32285000       0.33022000       5.03535000      -0.99210900      -0.59745100       4.73628300      -0.99102960      -0.34249162       4.77131505
Fe       6.75330000       1.32958000       7.05071000       0.53851300       2.01290400       0.36400700       0.52494280       1.85494154       0.37905173
Fe       6.82686000       2.53028000       3.66692000      -0.08907100      -0.12987400      -0.26318300      -0.01763553      -0.17844073      -0.22009840
Fe       6.83617000       5.56618000       0.59386000       1.74434500       1.47371700      -3.32847200       1.84295299       1.66892331      -3.53333056
Fe       8.27091000       4.29855000       2.87718000       3.23308900       0.33980500       1.37352500       3.18077039       0.16943277       1.32060850
Fe       6.58774000       4.90718000       4.97515000      -1.87594500       0.58060600      -0.05143700      -2.12165745       0.65521159      -0.42962108
Fe       6.86773000       6.79187000       3.27473000       1.52763600      -2.76254700       0.67579100       1.40766553      -2.48321301       0.34422981
Fe       8.09083000       8.29691000       0.84396000      -4.18921500      -1.95965200       9.56442300      -4.08592988      -2.28719815       9.63240574
Fe       6.62133000       7.67903000       7.47205000      -3.65417600       1.51975600      -3.32990400      -3.98721375       1.23316120      -3.48168281
B        3.45077000       6.81738000       6.75435000       2.04131500      -2.79808300       3.80923700       1.96780824      -2.85296985       4.02885712
B        4.67436000       1.10514000       4.73414000       0.75036200       0.95391600      -0.52852700       0.82684665       0.97181688      -0.45086186
B        6.18153000       2.20088000       5.47737000      -4.49435700      -3.20609500      -2.27763700      -4.73495617      -3.17016954      -2.53535899
B        5.08133000       4.10197000       6.35983000       0.35152900       0.25548900      -0.65354500       0.52362095       0.27094890      -0.54665112
B        4.48663000       4.29393000       1.40792000      -0.27448100       1.04603100       0.21283300      -0.26569219       1.24856964       0.13279082
B        4.96286000       5.88068000       6.14703000       0.60492000      -1.85032800       0.29314600       0.53738586      -1.95538996       0.16057366
B        8.17242000       5.65216000       5.55863000       1.00443800       0.65677900      -0.69824300       1.08165571       0.63773340      -0.30362275
B        7.98743000       6.92663000       6.60530000       5.86774900       2.58695800      -4.05103700       5.83367070       2.37819643      -3.57889846
B        7.10769000       5.72812000       6.91109000      -2.33709700      -3.34606800       1.34633400      -2.20110376      -3.40431409       1.42576942
B        7.81665000       6.81498000       8.33858000       5.04350100      -2.41043400       0.97359300       5.12147527      -2.48996213       0.63018385
Si       0.06983000       0.14925000       7.74742000       4.12649000       2.60901100      -8.87608100       4.00688482       2.62500786      -8.83998028
Si       1.93337000       2.41223000       3.74634000      10.14534600       2.98113100     -12.18526000      10.17900793       3.03737350     -11.96945398
Si       0.75978000       6.02813000       1.69309000      -4.13401100      -0.74920300       1.02787300      -4.10487158      -0.87064721       0.95896040
Si       2.22023000       5.10313000       7.16329000      -1.58663400       1.19675500      -1.89967800      -1.74619512       1.12426100      -1.92931506
Si       3.27754000       8.17117000       8.35443000       4.04667900       4.58101600      -2.24829100       3.88749290       4.54280089      -2.38755626
Si       4.48145000       2.18337000       8.34202000      -5.72220500      -5.96162700      -4.99603400      -5.51843219      -5.81414743      -5.20767408
Si       6.36439000       4.54151000       2.12641000       2.28764700      -2.33178900       1.39384200       2.62036514      -2.20644153       1.29434565
Si       4.52267000       6.51460000       3.75633000       0.42177200       5.22743800       1.25328700       0.12222712       5.31909008       1.32226177
Si       7.68278000       0.22257000       3.11016000      -0.17295300       4.89916800      -3.86478000      -0.24069894       4.83708905      -3.96185670
Si       7.35363000       3.38410000       6.13231000       4.40786200       1.27045000       2.62604800       4.43974945       1.36523996       2.96980352
54
Lattice="8.579999685 0.0 0.0 0.0 8.579999685 0.0 0.0 0.0 8.5799996" Properties=species:S:1:pos:R:3:REF_forces:R:3:MACE_forces:R:3 config_type=Fe34B10Si10 REF_energy=-354.71875992 MACE_energy=-355.24854697340214 pbc="T T T"
Fe       0.43313000       1.19321000       2.96848000       1.47291300       2.99028000       0.61180900       1.61947842       2.98185861       0.38922185
Fe       0.91365000       1.12516000       8.09995000       2.76260400      -2.00335600       1.20968300       2.42016950      -1.88512646       1.08706589
Fe       1.17142000       2.67870000       5.23446000      -1.90323000       6.04651700       0.58026800      -1.69461551       6.22095922       0.58397908
Fe       0.60772000       3.85484000       0.87278000       2.66909500       4.89444800       4.53699300       2.65818849       5.11954665       4.16814930
Fe       1.41565000       3.44858000       3.01161000      -0.29549500       2.03729500      -0.74017400      -0.15419570       1.88832797      -0.72279257
Fe       0.04226000       2.91249000       8.09734000      -3.39897200      -2.84207300      -2.69442200      -2.88143868      -2.90825112      -2.35657225
Fe       1.33282000       7.09057000       5.22634000      -0.45239700      -1.35392500       0.92503500      -0.31337988      -1.48698635       0.90185819
Fe       2.06045000       7.92051000       0.98063000      -3.11321000      -0.30108300      -2.49280600      -3.27920086      -0.46279256      -2.35970274
Fe       2.03627000       8.24295000       3.50701000      -1.42216600       4.38122900       0.88517600      -1.59726704       4.16856384       0.56466857
Fe       0.01253000       8.02686000       7.00667000       2.58679700       0.98610200     -11.80201700       2.50812959       0.82504209     -11.98137943
Fe       3.00353000       0.57289000       6.13981000      -1.03922300       0.18357300       0.93137300      -0.74874659       0.05878565       1.08600165
Fe       3.69949000       2.65196000       7.51811000       2.76433000      -4.34399200      -3.80269000       2.58724108      -4.17582858      -3.66647242
Fe       2.94478000       6.44154000       3.03987000       7.21319500      -3.66655800      -1.17614100       7.10150068      -3.44378071      -1.04129795
Fe       2.94309000       5.75189000       6.64956000      -6.24071800      -0.74678300       3.86021800      -6.47893320      -0.70497686       3.97274619
Fe       3.71160000       8.39321000       1.86324000       2.24845700      -0.43546600       0.28887200       2.42334988      -0.20745163       0.58122651
Fe       4.07810000       8.43915000       4.32840000       2.88035800       1.28304800      -0.49181300       2.94699062       1.36933102      -0.80831937
Fe       5.57499000       0.73262000       6.31633000      -3.12774100      -1.68249800      -0.98058200      -2.80910386      -1.72924435      -0.97620524
Fe       4.70712000       1.94493000       1.65492000      -2.04675700       4.97917500      -3.67899600      -2.06308208       4.83117431      -3.48523120
Fe       4.73401000       4.18392000       1.24748000       0.71501700       1.80608500      -0.06999200       0.69586497       1.92820890      -0.12697352
Fe       4.56687000       4.22266000       4.39618000       0.73801700       3.32591500      -2.10569900       0.56328703       3.38358598      -2.24732689
Fe       4.51224000       4.61167000       7.05684000       2.53211900      -0.41024200       0.53825400       2.96123738      -0.67839183       0.58482444
Fe       6.32808000       6.81945000       4.24288000      -3.20445400      -0.33519400      -1.28892300      -2.81030337      -0.22107047      -1.07868197
Fe       6.22240000       7.17309000       0.16230000      -3.30904600      -2.75215800       1.90373500      -3.44673864      -2.98581055       2.01334640
Fe       4.54224000       7.44382000       7.03838000       0.17895600      -5.02037800      -8.74618400       0.25211977      -5.22372462      -8.72748074
Fe       4.73272000       8.55832000       8.35561000      -0.10588400       8.96287400       6.54083400      -0.29244000       9.23731983       6.10098612
Fe       7.67285000       2.82429000       2.17742000      -2.12886900      -0.76272600      -2.06587500      -2.14883154      -0.77776599      -1.92963441
Fe       6.74071000       1.77406000       4.33655000       0.47479500       0.50025500      -0.42349800       0.09620842       0.43790902      -0.48046582
Fe       7.16362000       1.61896000       6.68131000       5.11373900       1.83737400       0.70818800       4.75721409       1.62141480       0.62587091
Fe       6.73653000       4.13840000       7.84564000       0.19062300       0.32905600       3.59274800       0.26591631       0.44830911       3.61210426
Fe       6.61248000       5.35948000       2.44590000       0.96755600      -0.77403900      -0.47053600       0.87183788      -0.75689300      -0.44717702
Fe       8.39074000       4.95678000       4.82580000       0.50677700       3.21370700       1.22596300       0.57492614       3.19636061       1.09307938
Fe       6.62275000       6.29700000       6.29237000       0.91106900      -0.58785400       1.74696000       0.86031488      -0.47900898       1.57241176
Fe       8.00875000       8.14674000       2.12563000      -1.25903800      -1.94608200      -3.37077000      -0.88857227      -1.93614155      -3.51554328
Fe       7.96861000       8.10559000       4.08816000       1.24434400       0.03207600       4.40361200       0.65220190      -0.00911455       4.63180078
B        3.14587000       1.61638000       2.59818000      -3.96044800      -1.57388800      -2.24367700      -4.09585158      -1.54662652      -2.19724509
B        4.07212000       1.93087000       3.78701000       0.55534200       0.12762300      -3.25123200       0.37422300       0.08713973      -3.26490299
B        2.24412000       1.90783000       4.05913000      -1.80380000      -9.70850100      -5.48536600      -2.00667763     -10.02952049      -5.59210653
B        2.90130000       3.06657000       4.45062000       2.48509300       7.60479000      -1.50334300       2.84060134       7.34389266      -1.43105384
B        2.82587000       3.80138000       5.80651000       0.21675600       2.27927400       3.92227300       0.23661271       2.16037182       3.95760190
B        2.60929000       5.04297000       1.66311000       0.12617300      -0.77075900      -0.46531300       0.00335213      -0.99278851      -0.50647112
B        2.47198000       4.95014000       4.32601000      -0.76752800      -1.31946700       0.35153300      -0.86361696      -1.20617317       0.44905172
B        2.73354000       7.81887000       7.66829000      -1.47869400      -0.15377200       0.00458000      -1.50127939      -0.16353659       0.09463895
B        5.68071000       2.28134000       7.79544000      -0.95924500       0.41857400       1.11780500      -1.04284375       0.40325835       1.11160261
B        7.77536000       3.70665000       3.76574000      -0.44877700      -1.48394500      -0.38974400      -0.48436825      -1.42512523      -0.18537854
Si       0.79518000       0.92195000       5.77957000      -1.66645900      -4.94136200      -1.10925300      -1.63032581      -4.96729167      -0.96203795
Si       0.88055000       4.20706000       6.73551000       1.15626000       3.58432200      -0.32349000       1.10117404       3.65254375      -0.30656718
Si       1.15025000       6.44729000       2.43826000      -7.77651300      -1.83655100      -1.54918700      -7.78716386      -1.72581672      -1.74009410
Si       2.82820000       3.29548000       0.50208000      -4.05499500       1.58525200       5.32597100      -4.10559973       1.44184911       5.31452263
Si       4.14031000       6.38272000       0.30005000      -2.16949800      -2.44928300       2.57761000      -2.31106022      -2.32122802       2.45822797
Si       3.68345000       6.43010000       5.01209000       3.98893100       0.98565200      -2.13453700       3.93079382       1.21611916      -2.10356676
Si       5.73751000       0.59059000       2.53265000       5.08228400      -4.90021500       2.23852200       5.13632963      -4.88552765       2.47063494
Si       4.51163000       2.47994000       5.36819000       2.60737700      -2.86786400       7.12589500       2.84061141      -2.58722966       7.28364651
Si       6.43436000       3.75222000       5.86206000       1.38008400       0.66155200      -3.64612400       1.50124388       0.65892264      -3.75856710
Si       8.06432000       7.52318000       8.55473000       2.36409700      -3.06603600      11.34847700       2.65451740      -2.75757040      11.28997955
18
Lattice="6.5 0.0 0.0 0.0 6.5 0.0 0.0 0.0 6.5" Properties=species:S:1:pos:R:3:REF_forces:R:3:MACE_forces:R:3 config_type=Fe12B3Si3 REF_energy=-113.87843945 MACE_energy=-112.28010012271409 pbc="T T T"
Fe       5.40234000       5.43492000       1.53729000      -1.39532100       2.04028400       0.71142300      -1.17338484       1.96434036       0.76135428
Fe       2.09750000       2.10361000       0.54730000       2.35673700      -0.33103000       1.27254800       2.58591605      -0.17234282       1.50478909
Fe       2.84360000       1.73250000       3.81271000       2.28004000      -1.18251600      -0.27344700       2.21166851      -0.99674828      -0.29930649
Fe       0.77541000       4.93717000       1.04317000       1.56096300      -3.83372900       1.76362000       1.40426911      -3.55522114       1.57904453
Fe       0.07665000       3.70431000       3.74351000      -0.75952900      -0.39175400      -2.23189700      -1.11871024      -0.52013682      -2.30745439
Fe       4.77171000       3.58949000       4.78220000      -1.99219600      -4.62409700       0.48420500      -1.71579021      -4.56095820       0.38491772
Fe       4.12430000       1.49867000       1.46476000       0.29771700      -2.38794700       0.28396300       0.27276747      -2.70833887       0.16374849
Fe       0.95387000       5.17746000       5.28728000      -0.57085000      -0.50160400      -1.80733600      -0.86761083      -0.64895160      -1.31313317
Fe       1.93602000       3.09888000       2.36598000      -0.08855100       0.43128300      -0.27209000      -0.25154569       0.46740140      -0.58533258
Fe       5.69037000       1.28357000       4.20026000      -0.40866000      -0.49067900       0.18976600      -0.80700730      -0.37437845       0.25810764
Fe       1.94321000       2.86141000       5.39871000      -0.55906500       0.73218900      -1.80086600      -0.50703563       0.76450934      -2.05004343
Fe       4.33122000       5.38124000       5.25469000      -0.73272900       4.56545400       1.52017900      -0.60799755       4.41075641       1.58318910
B        0.37598000       1.64060000       1.21420000      -3.21263000       2.85095800       0.76078000      -3.05542725       2.82258105       0.82951442
B        1.88110000       4.04794000       3.96741000       2.48956600       2.45119300      -0.32261600       2.63610199       2.42885234      -0.30025554
B        3.63878000       0.94242000       5.41981000      -0.01444500       0.67937600       0.95779200       0.10610313       0.78577193       1.03091522
Si       1.19380000       0.26963000       0.19686000       0.54051800       0.24528300      -1.93219100       0.63895068       0.08536490      -1.86236959
Si       4.57825000       3.47658000       1.16117000       0.15934200       1.26766700      -0.81102600       0.24681690       1.46886442      -0.75629657
Si       1.09558000       0.76720000       2.75124000       0.04909300      -1.52033200       1.50719200       0.00191568      -1.66136594       1.37861127
54
Lattice="8.579999685 0.0 0.0 0.0 8.579999685 0.0 0.0 0.0 8.5799996" Properties=species:S:1:pos:R:3:REF_forces:R:3:MACE_forces:R:3 config_type=Fe34B10Si10 REF_energy=-356.0869274 MACE_energy=-356.9226830279615 pbc="T T T"
Fe       0.92877000       1.08311000       2.12831000      -0.53214900      -1.15432400       0.53007800      -0.70535708      -1.17938355       0.39573448
Fe       1.12794000       0.45096000       7.37327000      -2.86345100       2.18226700       1.45805300      -2.75614059       1.98083034       1.40632453
Fe       0.91289000       3.61082000       1.96264000      -1.66570100       0.50807500      -4.76654600      -1.62822867       0.29385749      -4.79105871
Fe       0.97242000       3.25012000       3.83975000      -0.85629000      -1.23507100      -0.91491200      -1.18843376      -1.17827310      -0.32003153
Fe       1.43574000       3.84332000       5.84621000      -1.94378300      -0.72872400       4.94145300      -2.06903846      -0.59900569       4.85186472
Fe       0.45897000       5.99881000       1.32384000       1.86679900       1.45939200      -0.33976700       1.72266213       1.48630039      -0.13487621
Fe       0.05714000       6.25044000       6.01250000       0.66851500      -0.88142700       1.67028200       0.59162010      -0.74975897       1.64671770
Fe       1.87526000       7.05991000       7.27744000      -5.90957000       6.81146600       5.95768600      -5.69830962       7.12596041       5.89287456
Fe       4.21220000       0.80536000       3.81626000       0.44958900      -1.97725700       0.54591300       0.54756356      -1.91053640       0.44896920
Fe       2.64196000       0.75311000       5.88605000       0.80305000      -0.92688600      -1.50973400       0.48087251      -1.06612960      -1.44063063
Fe       2.51735000       4.27963000       7.86001000      -0.17185400       2.88247300       0.00075600      -0.13916255       2.95378598       0.05621346
Fe       2.46175000       4.76211000       4.38544000       2.27245000       6.36429500      -0.60000700       2.33169737       6.40596432      -0.61212451
Fe       3.99132000       4.46692000       6.09268000      -0.21521200      -1.96607600      -0.25853400      -0.23873289      -2.22589885      -0.19474279
Fe       4.03283000       6.20484000       2.50717000       0.32509400      -1.83048700       1.07686200       0.47214980      -1.75893918       1.03157776
Fe       2.62183000       8.12097000       1.25125000      -5.45108600      -1.04608100      -0.88869000      -5.50806794      -1.12220184      -0.69168032
Fe       2.34208000       7.49949000       3.33705000      -1.45221900       0.10179900       1.96325000      -1.32305206       0.09507155       1.67225859
Fe       4.67554000       0.98699000       8.35162000       1.97529500       0.95938300       0.07305200       1.73472888       0.94035781       0.25272286
Fe       4.68615000       2.28426000       1.60336000       6.03713100       4.39249100       1.56082500       6.28106434       4.33977372       1.04477520
Fe       4.95897000       4.28949000       0.91503000       1.24258400       3.77490300      -1.07876200       0.83384216       3.62399156      -1.18482273
Fe       5.62605000       3.84953000       3.25301000      -4.56775200       3.43217100       2.09526400      -4.58067849       3.49304791       1.87588901
Fe       5.63153000       5.70233000       4.67966000       0.04558900       0.36352900      -0.74034800       0.09845902      -0.02049152      -0.57961660
Fe       5.00954000       6.14620000       6.89198000       4.51113600      -2.60361300       1.43664400       4.54603548      -2.42808429       1.37135566
Fe       5.34723000       7.32984000       0.56425000       3.41130600      -7.55812200      -7.44238600       3.40074330      -7.04308280      -7.09334835
Fe       4.57141000       8.20633000       1.67615000      -2.51651100       6.57056000       9.11650700      -2.53094026       6.00466139       8.80843102
Fe       5.67084000       7.83697000       6.02451000      -0.02983000       3.57151200       0.33120700      -0.08031411       3.65583456       0.38486045
Fe       7.65837000       1.05332000       0.64336000       1.95813700       2.93603900      -3.62028800       1.83782020       2.83675421      -3.46400911
Fe       7.23579000       1.49494000       3.62009000       0.88838800      -1.50203300       3.00240400       1.01439870      -1.41584621       2.98857394
Fe       6.96409000       1.59543000       6.70415000       0.40175100      -2.57633900      -0.54943900       0.47137715      -2.49731595      -0.56531339
Fe       6.97946000       3.05325000       2.27831000       3.01329100      -2.85779700      -7.80747400       2.58271974      -2.99683473      -7.34415857
Fe       7.05854000       3.62734000       7.13255000       0.94483300       2.42104600       2.56329500       1.00957925       2.40748629       2.39503008
Fe       7.47490000       4.49325000       0.92243000      -3.13561000       0.06366500       0.11142200      -2.83790392       0.43560905      -0.13158795
Fe       7.76499000       5.40883000       4.05655000       3.42051700      -2.49950500       1.10150300       3.51491581      -2.63050923       1.14134400
Fe       6.91686000       6.16423000       2.38917000      -4.34160700       0.52717700      -3.24358900      -4.33803639       0.77009729      -3.23551113
Fe       7.31773000       7.39473000       4.73130000      -1.41907300       3.06948200       1.38572900      -1.40329688       2.95579790       1.35708824
B        1.63947000       5.44017000       2.85377000      -1.37965300       1.67099600      -0.34434500      -1.49364747       1.70694704      -0.58354198
B        3.47444000       1.29905000       1.69513000      -6.04542900      -7.46227000      -1.52467000      -6.07189395      -6.98104200      -1.19281194
B        2.31673000       1.42955000       3.77944000      -1.85652800      -2.14982900       3.21956500      -1.76164285      -1.98060138       3.40852347
B        3.17088000       0.01260000       8.16689000      -2.14308300      -0.12737100      -3.63430700      -2.04955614       0.12862554      -3.53808865
B        2.48887000       2.23189000       2.44876000      -1.30373000       3.96631200      -0.94871100      -0.93368337       3.86031033      -1.26798062
B        3.55016000       3.21990000       0.17024000       2.13469500      -3.52588700       0.23974700       2.11535150      -3.51816994       0.38416234
B        3.12966000       3.07291000       4.24572000      -6.99085300       0.34377600      -0.16579100      -7.04355007       0.17879098      -0.17691102
B        2.38358000       5.95301000       6.34325000       2.25901800      -8.76611800      -6.31465800       2.14115276      -9.10338876      -6.46919384
B        4.46260000       2.62992000       4.23823000       7.08507900      -1.75449200       0.40993300       7.11909218      -1.89854994       0.39692065
B        7.51183000       3.59374000       3.85724000       1.49621300      -1.20378300       3.39561400       1.51762531      -1.04892038       3.24532407
Si       0.50050000       1.66927000       5.10425000      -1.02554400      -2.67263500       2.61432900      -0.79356889      -2.97146801       2.63223751
Si       0.41923000       4.50138000       8.15701000       0.82744200      -0.47721100      -2.57541600       1.08273738      -0.41496194      -2.77967099
Si       2.90131000       4.25049000       1.93860000       2.71957100       0.04497600      -0.88170100       2.75966073      -0.00992202      -1.07111398
Si       3.74353000       6.85388000       5.19884000      -1.20766000       1.80214700      -2.20114300      -1.07450278       1.94052795      -2.11261364
Si       3.54209000       6.47938000       8.21357000      -0.45014500      -1.75854100       4.24377300      -0.61844701      -2.07808700       4.38366841
Si       4.55252000       1.74669000       6.40118000       0.28733400       0.20348600      -1.69136000       0.25542121       0.16889657      -1.57952091
Si       5.87020000       3.30923000       5.41310000       1.93974000       0.55942400      -1.14043100       1.66832972       0.82195280      -1.14663313
Si       6.68392000       0.09389000       2.07850000      -2.78148600      -1.30329400       2.70552900      -2.52027431      -1.22947306       2.81267008
Si       7.30980000       7.36953000       0.08595000       4.18267400      -0.22507900      -1.67891000       4.27166738      -0.44449873      -1.75124189
Si       8.41387000       7.50606000       2.97540000       5.08859000       1.78741200      -0.88875800       4.98317283       1.89014171      -0.83327687
54
Lattice="8.579999685 0.0 0.0 0.0 8.579999685 0.0 0.0 0.0 8.5799996" Properties=species:S:1:pos:R:3:REF_forces:R:3:MACE_forces:R:3 config_type=Fe34B10Si10 REF_energy=-359.84864784 MACE_energy=-360.3266467064501 pbc="T T T"
Fe       0.39531000       2.37288000       0.87042000       3.27925500       2.43832800      -1.60261100       3.17392096       2.68928860      -1.75800586
Fe       0.75383000       1.65209000       3.11094000       1.30783500      -0.34615400      -0.09267000       1.29609522      -0.81638275       0.06267399
Fe       1.33201000       3.79282000       7.26231000      -2.40668100      -1.18131200       0.32245500      -2.48359817      -1.17597997       0.24495885
Fe       0.64436000       4.41396000       2.97573000       2.42004200      -2.26182600       0.38963900       2.49292179      -2.06221656       0.25496940
Fe       0.14751000       6.42079000       3.51005000      -3.07002100       1.32407200      -2.30638400      -3.10004957       1.32087179      -2.41142235