54
Lattice="8.579999685 0.0 0.0 0.0 8.579999685 0.0 0.0 0.0 8.5799996" Properties=species:S:1:pos:R:3:REF_forces:R:3:MACE_forces:R:3 config_type=Fe34B10Si10 REF_energy=-352.89092233 MACE_energy=-353.65292064037175 pbc="T T T"
Fe       1.46495000       0.71583000       1.12880000       3.73230100      -3.41607500      -3.76209700       3.32907261      -3.13014818      -2.95070576
Fe       0.56244000       2.07917000       1.96452000      -3.31290700       4.06628900       2.54508600      -3.46485230       3.77006466       2.01375701
Fe       0.86636000       2.12990000       5.00906000     -10.85567700      -2.87102900      12.20968700     -10.15479055      -2.55003380      11.83096293
Fe       0.24697000       2.61233000       7.83061000      -0.37811800      -2.03816900      -0.08744800      -0.43972366      -2.30052635       0.11483699
Fe       0.35437000       4.66395000       8.16447000      -1.30300600       1.62250000       0.84662400      -1.33994046       2.11147190       0.85069587
Fe       0.83543000       8.00840000       3.01492000       5.54921000      -2.55787300       0.52513800       5.50919141      -2.74990688       0.87947886
Fe       2.03952000       7.84431000       6.63062000      -4.28706100       1.82495200      -1.68802900      -4.27106866       2.13305501      -1.70730672
Fe       3.34318000       0.11090000       2.96052000      -0.46571400      -0.35056300       0.37864800      -0.64906930      -0.01346951       0.66673380
Fe       3.26317000       2.11539000       1.48699000      -3.47884800      -0.03222100       0.61542300      -3.39653663      -0.05184729      -0.27728697
Fe       4.14313000       2.75755000       3.31065000      -0.71378000      -2.73118300       1.93004800      -0.31454162      -2.23624006       1.78179472
Fe       2.55051000       2.67374000       7.19710000      -2.55215900      -0.93589000       1.77261600      -2.19779488      -0.89456560       1.83144456
Fe       3.61327000       2.86500000       5.46497000       1.55763200       0.20514300      -0.56676300       1.38650446       0.45343702      -0.54586145
Fe       2.62400000       4.72550000       1.39174000      -1.08585200      -1.19598700       0.59645400      -0.93664203      -1.22724309       0.54816246
Fe       2.20317000       5.21693000       3.87451000      -3.92870900      -4.38103900      -4.92199500      -3.81472440      -4.53757153      -5.47423435
Fe       3.93082000       4.37819000       8.08226000       1.07616800       0.44807800      -0.99700400       1.05179415       0.54023518      -0.42380352
Fe       2.44961000       7.01753000       1.08943000       0.32119000      -1.55635000       3.27006500       0.71005413      -1.27401943       2.88099211
Fe       3.02500000       6.15780000       5.08193000      -1.08486800       1.64126100       3.95415400      -0.21220135       1.58987000       4.18666741
Fe       5.77712000       0.44616000       0.16142000      -2.43333700       0.07175000       4.13474700      -1.95126957       0.22036531       4.31703618
Fe       5.66964000       0.14892000       2.95259000      -3.67617900       1.90971100       0.12919700      -3.51780033       1.96596344       0.06595415
Fe       5.39484000       2.66317000       1.55162000       4.08183700      -3.39937100       3.88213200       4.02719263      -3.39813515       4.05366104
Fe       5.91309000       3.40423000       8.31953000       8.90196200       5.48305700      -2.72562400       8.35479025       5.31215076      -3.08987634
Fe       4.96126000       4.63305000       3.41410000      -3.60269200      -2.00302700       2.25051900      -3.60715553      -2.07126119       3.13668956
Fe       5.11347000       6.81217000       1.78872000      -0.87770500       0.06714300      -1.61156800      -0.68427494       0.26784050      -1.77452077
Fe       5.00950000       6.45991000       8.24507000      -2.30619500      -0.19808200      -1.52355700      -2.18815772      -0.51608487      -1.83860036
Fe       4.64263000       7.71190000       5.75084000       2.50156800       4.23919200      -1.55456800       2.86413638       4.40689749      -1.41325729
Fe       7.32285000       0.33022000       5.03535000      -0.99210900      -0.59745100       4.73628300      -0.66236853      -0.51579796       4.30252998
Fe       6.75330000       1.32958000       7.05071000       0.53851300       2.01290400       0.36400700       0.52693710       1.54079422       0.66447553
Fe       6.82686000       2.53028000       3.66692000      -0.08907100      -0.12987400      -0.26318300       0.23018416      -0.19353592      -0.48484631
Fe       6.83617000       5.56618000       0.59386000       1.74434500       1.47371700      -3.32847200       1.20231337       0.98041539      -3.31237805
Fe       8.27091000       4.29855000       2.87718000       3.23308900       0.33980500       1.37352500       3.05114056       0.15870100       1.18503533
Fe       6.58774000       4.90718000       4.97515000      -1.87594500       0.58060600      -0.05143700      -2.31623742       1.30254793      -1.28565327
Fe       6.86773000       6.79187000       3.27473000       1.52763600      -2.76254700       0.67579100       1.34629953      -2.55594377       0.49481713
Fe       8.09083000       8.29691000       0.84396000      -4.18921500      -1.95965200       9.56442300      -3.75001705      -1.49741759       9.57658206
Fe       6.62133000       7.67903000       7.47205000      -3.65417600       1.51975600      -3.32990400      -4.68261332       1.36827390      -4.10935810
B        3.45077000       6.81738000       6.75435000       2.04131500      -2.79808300       3.80923700       2.14753831      -3.00136385       3.91485091
B        4.67436000       1.10514000       4.73414000       0.75036200       0.95391600      -0.52852700       0.32448132       0.32957707      -0.45963224
B        6.18153000       2.20088000       5.47737000      -4.49435700      -3.20609500      -2.27763700      -4.40893402      -2.72722348      -2.44793936
B        5.08133000       4.10197000       6.35983000       0.35152900       0.25548900      -0.65354500       0.36249854       0.21830035      -0.30621866
B        4.48663000       4.29393000       1.40792000      -0.27448100       1.04603100       0.21283300      -0.35264917       1.20492415       0.00034939
B        4.96286000       5.88068000       6.14703000       0.60492000      -1.85032800       0.29314600       0.16715876      -1.61857345       0.41603072
B        8.17242000       5.65216000       5.55863000       1.00443800       0.65677900      -0.69824300       2.15096519       0.09876416      -0.54590460
B        7.98743000       6.92663000       6.60530000       5.86774900       2.58695800      -4.05103700       5.40058488       2.53168052      -2.99138358
B        7.10769000       5.72812000       6.91109000      -2.33709700      -3.34606800       1.34633400      -2.47425293      -3.64565023       1.53372859
B        7.81665000       6.81498000       8.33858000       5.04350100      -2.41043400       0.97359300       5.14610397      -2.70711399       0.51582917
Si       0.06983000       0.14925000       7.74742000       4.12649000       2.60901100      -8.87608100       4.13831297       2.89640839      -8.82159651
Si       1.93337000       2.41223000       3.74634000      10.14534600       2.98113100     -12.18526000       9.54513793       2.74246332     -11.22859744
Si       0.75978000       6.02813000       1.69309000      -4.13401100      -0.74920300       1.02787300      -3.79319581      -1.09846969       0.88699804
Si       2.22023000       5.10313000       7.16329000      -1.58663400       1.19675500      -1.89967800      -1.76987964       1.05048444      -1.71769004
Si       3.27754000       8.17117000       8.35443000       4.04667900       4.58101600      -2.24829100       3.63736900       4.38518315      -1.85125970
Si       4.48145000       2.18337000       8.34202000      -5.72220500      -5.96162700      -4.99603400      -5.86331597      -5.81888657      -5.03571518
Si       6.36439000       4.54151000       2.12641000       2.28764700      -2.33178900       1.39384200       2.19298937      -2.18690494       1.22275341
Si       4.52267000       6.51460000       3.75633000       0.42177200       5.22743800       1.25328700       0.30583850       5.03866675       1.01501590
Si       7.68278000       0.22257000       3.11016000      -0.17295300       4.89916800      -3.86478000      -0.22712899       4.53568611      -3.72725715
Si       7.35363000       3.38410000       6.13231000       4.40786200       1.27045000       2.62604800       4.33254726       1.36371221       2.93301992
54
Lattice="8.579999685 0.0 0.0 0.0 8.579999685 0.0 0.0 0.0 8.5799996" Properties=species:S:1:pos:R:3:REF_forces:R:3:MACE_forces:R:3 config_type=Fe34B10Si10 REF_energy=-354.71875992 MACE_energy=-353.91060583641854 pbc="T T T"
Fe       0.43313000       1.19321000       2.96848000       1.47291300       2.99028000       0.61180900       1.73291707       2.69891496       0.47500060
Fe       0.91365000       1.12516000       8.09995000       2.76260400      -2.00335600       1.20968300       2.68271405      -1.74805283       1.48719010
Fe       1.17142000       2.67870000       5.23446000      -1.90323000       6.04651700       0.58026800      -2.96837245       6.54650358       0.40868625
Fe       0.60772000       3.85484000       0.87278000       2.66909500       4.89444800       4.53699300       2.52565244       5.28223832       4.21202269
Fe       1.41565000       3.44858000       3.01161000      -0.29549500       2.03729500      -0.74017400       0.19947772       2.00215015      -0.70543280
Fe       0.04226000       2.91249000       8.09734000      -3.39897200      -2.84207300      -2.69442200      -3.66744145      -3.16454190      -3.27584329
Fe       1.33282000       7.09057000       5.22634000      -0.45239700      -1.35392500       0.92503500      -0.10216278      -1.22140788       0.56567940
Fe       2.06045000       7.92051000       0.98063000      -3.11321000      -0.30108300      -2.49280600      -3.62205698      -0.36145426      -2.78714683
Fe       2.03627000       8.24295000       3.50701000      -1.42216600       4.38122900       0.88517600      -1.57679236       3.91017465       0.85279511
Fe       0.01253000       8.02686000       7.00667000       2.58679700       0.98610200     -11.80201700       2.01741916       0.48361328     -11.72502282
Fe       3.00353000       0.57289000       6.13981000      -1.03922300       0.18357300       0.93137300      -0.51354269       0.43342069       0.72843488
Fe       3.69949000       2.65196000       7.51811000       2.76433000      -4.34399200      -3.80269000       1.84961110      -3.97497568      -3.63626150
Fe       2.94478000       6.44154000       3.03987000       7.21319500      -3.66655800      -1.17614100       7.37706056      -3.01226771      -0.64633151
Fe       2.94309000       5.75189000       6.64956000      -6.24071800      -0.74678300       3.86021800      -5.94090872      -0.82518634       4.49775452
Fe       3.71160000       8.39321000       1.86324000       2.24845700      -0.43546600       0.28887200       2.91447289      -0.28924141       0.96457855
Fe       4.07810000       8.43915000       4.32840000       2.88035800       1.28304800      -0.49181300       2.55411741       1.41966024      -0.54105428
Fe       5.57499000       0.73262000       6.31633000      -3.12774100      -1.68249800      -0.98058200      -2.91926178      -2.04885172      -1.63271048
Fe       4.70712000       1.94493000       1.65492000      -2.04675700       4.97917500      -3.67899600      -1.10191861       4.53929319      -3.96035865
Fe       4.73401000       4.18392000       1.24748000       0.71501700       1.80608500      -0.06999200       0.65117276       1.76616856       0.04064009
Fe       4.56687000       4.22266000       4.39618000       0.73801700       3.32591500      -2.10569900       0.37888392       4.30524246      -2.47976971
Fe       4.51224000       4.61167000       7.05684000       2.53211900      -0.41024200       0.53825400       2.62628447      -0.28904398       0.38182846
Fe       6.32808000       6.81945000       4.24288000      -3.20445400      -0.33519400      -1.28892300      -2.55140852      -0.43272511      -1.20159473
Fe       6.22240000       7.17309000       0.16230000      -3.30904600      -2.75215800       1.90373500      -2.70492416      -2.92751964       2.07276311
Fe       4.54224000       7.44382000       7.03838000       0.17895600      -5.02037800      -8.74618400      -0.07415468      -5.02769481      -7.99298438
Fe       4.73272000       8.55832000       8.35561000      -0.10588400       8.96287400       6.54083400      -1.01560514       8.52335064       5.46662720
Fe       7.67285000       2.82429000       2.17742000      -2.12886900      -0.76272600      -2.06587500      -2.23894162      -0.82982335      -1.86133437
Fe       6.74071000       1.77406000       4.33655000       0.47479500       0.50025500      -0.42349800       0.16127477       0.59785969      -0.65183535
Fe       7.16362000       1.61896000       6.68131000       5.11373900       1.83737400       0.70818800       4.90504182       1.87790577       1.05363256
Fe       6.73653000       4.13840000       7.84564000       0.19062300       0.32905600       3.59274800       0.25223740       1.09773751       3.65626073
Fe       6.61248000       5.35948000       2.44590000       0.96755600      -0.77403900      -0.47053600       0.59435114      -0.60206625      -0.18077890
Fe       8.39074000       4.95678000       4.82580000       0.50677700       3.21370700       1.22596300       0.73107933       2.75711017       1.07783299
Fe       6.62275000       6.29700000       6.29237000       0.91106900      -0.58785400       1.74696000       0.63597998      -0.56270822       1.66800374
Fe       8.00875000       8.14674000       2.12563000      -1.25903800      -1.94608200      -3.37077000      -1.42559832      -1.58599178      -3.62322849
Fe       7.96861000       8.10559000       4.08816000       1.24434400       0.03207600       4.40361200       0.92219885       0.15562628       4.71073974
B        3.14587000       1.61638000       2.59818000      -3.96044800      -1.57388800      -2.24367700      -4.12074646      -1.11302082      -1.71001083
B        4.07212000       1.93087000       3.78701000       0.55534200       0.12762300      -3.25123200       1.18551594      -0.89915452      -3.57384198
B        2.24412000       1.90783000       4.05913000      -1.80380000      -9.70850100      -5.48536600      -2.36631698     -10.84417303      -5.14602843
B        2.90130000       3.06657000       4.45062000       2.48509300       7.60479000      -1.50334300       3.21682946       7.19734777      -1.91024407
B        2.82587000       3.80138000       5.80651000       0.21675600       2.27927400       3.92227300       0.63221896       2.96920728       3.69209893
B        2.60929000       5.04297000       1.66311000       0.12617300      -0.77075900      -0.46531300      -0.02194001      -0.87163054      -0.59804128
B        2.47198000       4.95014000       4.32601000      -0.76752800      -1.31946700       0.35153300      -0.78069044      -1.45291215       0.60105664
B        2.73354000       7.81887000       7.66829000      -1.47869400      -0.15377200       0.00458000      -0.90177740      -0.12812859       0.19766910
B        5.68071000       2.28134000       7.79544000      -0.95924500       0.41857400       1.11780500      -0.45812526      -0.04042635       0.82974415
B        7.77536000       3.70665000       3.76574000      -0.44877700      -1.48394500      -0.38974400      -0.56233982      -1.38349422      -0.30967933
Si       0.79518000       0.92195000       5.77957000      -1.66645900      -4.94136200      -1.10925300      -1.30253834      -4.73646734      -0.91148459
Si       0.88055000       4.20706000       6.73551000       1.15626000       3.58432200      -0.32349000       0.97329816       3.52410086       0.35049509
Si       1.15025000       6.44729000       2.43826000      -7.77651300      -1.83655100      -1.54918700      -8.02960952      -1.75834730      -1.82365608
Si       2.82820000       3.29548000       0.50208000      -4.05499500       1.58525200       5.32597100      -3.76039112       1.46330799       4.90081977
Si       4.14031000       6.38272000       0.30005000      -2.16949800      -2.44928300       2.57761000      -2.45404855      -2.46758855       2.16792145
Si       3.68345000       6.43010000       5.01209000       3.98893100       0.98565200      -2.13453700       3.76710666       1.22301329      -2.14514704
Si       5.73751000       0.59059000       2.53265000       5.08228400      -4.90021500       2.23852200       4.88548046      -4.42317502       2.82392094
Si       4.51163000       2.47994000       5.36819000       2.60737700      -2.86786400       7.12589500       2.95648148      -2.95625152       7.25674308
Si       6.43436000       3.75222000       5.86206000       1.38008400       0.66155200      -3.64612400       1.05251402       0.45937892      -3.22921149
Si       8.06432000       7.52318000       8.55473000       2.36409700      -3.06603600      11.34847700       2.80022220      -3.25500346      11.11809334
18
Lattice="6.5 0.0 0.0 0.0 6.5 0.0 0.0 0.0 6.5" Properties=species:S:1:pos:R:3:REF_forces:R:3:MACE_forces:R:3 config_type=Fe12B3Si3 REF_energy=-113.87843945 MACE_energy=-121.3904315823768 pbc="T T T"
Fe       5.40234000       5.43492000       1.53729000      -1.39532100       2.04028400       0.71142300      -2.40066453       2.40946845       1.01169965
Fe       2.09750000       2.10361000       0.54730000       2.35673700      -0.33103000       1.27254800       2.79371507      -0.89042797       2.72016345
Fe       2.84360000       1.73250000       3.81271000       2.28004000      -1.18251600      -0.27344700       2.23297977      -1.32997894      -0.41139140
Fe       0.77541000       4.93717000       1.04317000       1.56096300      -3.83372900       1.76362000       2.19487902      -3.77499696       1.54420156
Fe       0.07665000       3.70431000       3.74351000      -0.75952900      -0.39175400      -2.23189700      -1.36795838      -0.49033262      -2.21016995
Fe       4.77171000       3.58949000       4.78220000      -1.99219600      -4.62409700       0.48420500      -1.40162940      -4.12924151       0.47534041
Fe       4.12430000       1.49867000       1.46476000       0.29771700      -2.38794700       0.28396300       0.34640318      -3.34279816       0.74080432
Fe       0.95387000       5.17746000       5.28728000      -0.57085000      -0.50160400      -1.80733600      -0.56872229       0.01770279      -1.25563132
Fe       1.93602000       3.09888000       2.36598000      -0.08855100       0.43128300      -0.27209000      -0.03922527       1.03380003      -0.75447737
Fe       5.69037000       1.28357000       4.20026000      -0.40866000      -0.49067900       0.18976600      -0.68329412      -0.49570806       0.29450735
Fe       1.94321000       2.86141000       5.39871000      -0.55906500       0.73218900      -1.80086600      -0.99762167       1.78044561      -2.51139256
Fe       4.33122000       5.38124000       5.25469000      -0.73272900       4.56545400       1.52017900      -0.66124813       4.22990495       1.20816817
B        0.37598000       1.64060000       1.21420000      -3.21263000       2.85095800       0.76078000      -3.13136448       2.58534290       0.05838744
B        1.88110000       4.04794000       3.96741000       2.48956600       2.45119300      -0.32261600       2.62677793       2.41013548      -0.32009044
B        3.63878000       0.94242000       5.41981000      -0.01444500       0.67937600       0.95779200       0.48254858       0.08697330       0.70738973
Si       1.19380000       0.26963000       0.19686000       0.54051800       0.24528300      -1.93219100       0.55009889      -0.01922818      -1.89924657
Si       4.57825000       3.47658000       1.16117000       0.15934200       1.26766700      -0.81102600      -0.15785654       1.53019042      -0.87188002
Si       1.09558000       0.76720000       2.75124000       0.04909300      -1.52033200       1.50719200       0.18218238      -1.61125154       1.47361754
54
Lattice="8.579999685 0.0 0.0 0.0 8.579999685 0.0 0.0 0.0 8.5799996" Properties=species:S:1:pos:R:3:REF_forces:R:3:MACE_forces:R:3 config_type=Fe34B10Si10 REF_energy=-356.0869274 MACE_energy=-355.92622682600404 pbc="T T T"
Fe       0.92877000       1.08311000       2.12831000      -0.53214900      -1.15432400       0.53007800      -0.56875663      -0.71100309       0.63281693
Fe       1.12794000       0.45096000       7.37327000      -2.86345100       2.18226700       1.45805300      -2.49988478       2.31930609       1.58480796
Fe       0.91289000       3.61082000       1.96264000      -1.66570100       0.50807500      -4.76654600      -2.30842054       0.17120516      -4.55653751
Fe       0.97242000       3.25012000       3.83975000      -0.85629000      -1.23507100      -0.91491200      -0.36080854      -0.95418183      -0.14876564
Fe       1.43574000       3.84332000       5.84621000      -1.94378300      -0.72872400       4.94145300      -1.81975061      -0.76902040       4.32843883
Fe       0.45897000       5.99881000       1.32384000       1.86679900       1.45939200      -0.33976700       2.11690734       1.80217593      -0.06661795
Fe       0.05714000       6.25044000       6.01250000       0.66851500      -0.88142700       1.67028200       0.97435382      -1.17860091       1.72067947
Fe       1.87526000       7.05991000       7.27744000      -5.90957000       6.81146600       5.95768600      -5.58746491       6.81494132       5.41115607
Fe       4.21220000       0.80536000       3.81626000       0.44958900      -1.97725700       0.54591300       0.31909010      -1.51832484      -0.04414537
Fe       2.64196000       0.75311000       5.88605000       0.80305000      -0.92688600      -1.50973400       0.39707776      -0.57014159      -1.54397563
Fe       2.51735000       4.27963000       7.86001000      -0.17185400       2.88247300       0.00075600      -0.39022104       2.52164689      -0.55709716
Fe       2.46175000       4.76211000       4.38544000       2.27245000       6.36429500      -0.60000700       2.24325985       5.58559604      -0.98980270
Fe       3.99132000       4.46692000       6.09268000      -0.21521200      -1.96607600      -0.25853400      -0.62153053      -1.98545507      -0.48530998
Fe       4.03283000       6.20484000       2.50717000       0.32509400      -1.83048700       1.07686200       0.44461928      -1.78697007       0.87489001
Fe       2.62183000       8.12097000       1.25125000      -5.45108600      -1.04608100      -0.88869000      -4.73824460      -1.18267842      -0.76991635
Fe       2.34208000       7.49949000       3.33705000      -1.45221900       0.10179900       1.96325000      -1.29855585       0.07253301       2.00704077
Fe       4.67554000       0.98699000       8.35162000       1.97529500       0.95938300       0.07305200       2.22772444       0.98088636       0.42730153
Fe       4.68615000       2.28426000       1.60336000       6.03713100       4.39249100       1.56082500       7.09923740       4.59901937       1.16485246
Fe       4.95897000       4.28949000       0.91503000       1.24258400       3.77490300      -1.07876200       1.43156946       3.52368415      -1.34886326
Fe       5.62605000       3.84953000       3.25301000      -4.56775200       3.43217100       2.09526400      -4.59541238       3.60283507       1.28570276
Fe       5.63153000       5.70233000       4.67966000       0.04558900       0.36352900      -0.74034800      -0.35488507      -0.16745347      -0.74936629
Fe       5.00954000       6.14620000       6.89198000       4.51113600      -2.60361300       1.43664400       3.57994127      -2.41589349       1.37003934
Fe       5.34723000       7.32984000       0.56425000       3.41130600      -7.55812200      -7.44238600       3.10955798      -6.74550302      -7.24467102
Fe       4.57141000       8.20633000       1.67615000      -2.51651100       6.57056000       9.11650700      -2.81075577       5.69244891       9.18056565
Fe       5.67084000       7.83697000       6.02451000      -0.02983000       3.57151200       0.33120700      -0.07484632       4.28454643       0.43996721
Fe       7.65837000       1.05332000       0.64336000       1.95813700       2.93603900      -3.62028800       1.62940885       2.61952564      -3.64030139
Fe       7.23579000       1.49494000       3.62009000       0.88838800      -1.50203300       3.00240400       0.55140457      -1.24016184       3.16973715
Fe       6.96409000       1.59543000       6.70415000       0.40175100      -2.57633900      -0.54943900       0.38180709      -2.87789040      -0.43777179
Fe       6.97946000       3.05325000       2.27831000       3.01329100      -2.85779700      -7.80747400       2.59476546      -3.89555105      -6.35923041
Fe       7.05854000       3.62734000       7.13255000       0.94483300       2.42104600       2.56329500       0.89767827       2.66942108       2.10876097
Fe       7.47490000       4.49325000       0.92243000      -3.13561000       0.06366500       0.11142200      -3.20282699       0.96202877      -0.63157080
Fe       7.76499000       5.40883000       4.05655000       3.42051700      -2.49950500       1.10150300       3.44888894      -2.52221481       0.79594914
Fe       6.91686000       6.16423000       2.38917000      -4.34160700       0.52717700      -3.24358900      -4.63261748       0.03682142      -2.83721536
Fe       7.31773000       7.39473000       4.73130000      -1.41907300       3.06948200       1.38572900      -1.15259083       3.25427547       1.11163182
B        1.63947000       5.44017000       2.85377000      -1.37965300       1.67099600      -0.34434500      -1.59781888       1.67223233      -0.39595108
B        3.47444000       1.29905000       1.69513000      -6.04542900      -7.46227000      -1.52467000      -5.74958813      -7.53080648      -1.14484367
B        2.31673000       1.42955000       3.77944000      -1.85652800      -2.14982900       3.21956500      -1.48298087      -2.09968110       3.30792690
B        3.17088000       0.01260000       8.16689000      -2.14308300      -0.12737100      -3.63430700      -1.65620220      -0.32894391      -3.17553015
B        2.48887000       2.23189000       2.44876000      -1.30373000       3.96631200      -0.94871100      -1.20083701       4.04635576      -0.47339308
B        3.55016000       3.21990000       0.17024000       2.13469500      -3.52588700       0.23974700       1.77661384      -3.38336538       0.77896148
B        3.12966000       3.07291000       4.24572000      -6.99085300       0.34377600      -0.16579100      -6.75840633       0.09851029      -0.00068804
B        2.38358000       5.95301000       6.34325000       2.25901800      -8.76611800      -6.31465800       2.45078950      -9.13533171      -6.53733858
B        4.46260000       2.62992000       4.23823000       7.08507900      -1.75449200       0.40993300       6.11947022      -1.91182467       0.18668514
B        7.51183000       3.59374000       3.85724000       1.49621300      -1.20378300       3.39561400       1.65610910      -0.91566215       3.32429851
Si       0.50050000       1.66927000       5.10425000      -1.02554400      -2.67263500       2.61432900      -0.75659855      -2.69823967       2.39246936
Si       0.41923000       4.50138000       8.15701000       0.82744200      -0.47721100      -2.57541600       1.01857825      -0.27913141      -2.78916683
Si       2.90131000       4.25049000       1.93860000       2.71957100       0.04497600      -0.88170100       2.69502332       0.22569993      -0.72779574
Si       3.74353000       6.85388000       5.19884000      -1.20766000       1.80214700      -2.20114300      -1.30069355       1.64320095      -1.99136791
Si       3.54209000       6.47938000       8.21357000      -0.45014500      -1.75854100       4.24377300      -0.38377462      -1.71780744       4.46584894
Si       4.55252000       1.74669000       6.40118000       0.28733400       0.20348600      -1.69136000      -0.10604960       0.12066390      -1.41960133
Si       5.87020000       3.30923000       5.41310000       1.93974000       0.55942400      -1.14043100       2.00294452       0.93909088      -0.91289933
Si       6.68392000       0.09389000       2.07850000      -2.78148600      -1.30329400       2.70552900      -2.51572850      -0.92255840       2.44873451
Si       7.30980000       7.36953000       0.08595000       4.18267400      -0.22507900      -1.67891000       4.16463016      -0.90613427      -1.86390194
Si       8.41387000       7.50606000       2.97540000       5.08859000       1.78741200      -0.88875800       5.19480029       2.09187973      -0.67562662
54
Lattice="8.579999685 0.0 0.0 0.0 8.579999685 0.0 0.0 0.0 8.5799996" Properties=species:S:1:pos:R:3:REF_forces:R:3:MACE_forces:R:3 config_type=Fe34B10Si10 REF_energy=-359.84864784 MACE_energy=-359.68764993414527 pbc="T T T"
Fe       0.39531000       2.37288000       0.87042000       3.27925500       2.43832800      -1.60261100       2.83161519       2.65340487      -1.69335541
Fe       0.75383000       1.65209000       3.11094000       1.30783500      -0.34615400      -0.09267000       0.65566193      -0.56144816       0.17519767
Fe       1.33201000       3.79282000       7.26231000      -2.40668100      -1.18131200       0.32245500      -2.01073116      -0.82423247       0.95992818
Fe       0.64436000       4.41396000       2.97573000       2.42004200      -2.26182600       0.38963900       2.00325771      -2.11209690       0.55215154
Fe       0.14751000       6.42079000       3.51005000      -3.07002100       1.32407200      -2.30638400      -2.93033661       0.96378205      -2.36403886