54
Lattice="8.579999685 0.0 0.0 0.0 8.579999685 0.0 0.0 0.0 8.5799996" Properties=species:S:1:pos:R:3:REF_forces:R:3:MACE_forces:R:3 config_type=Fe34B10Si10 REF_energy=-352.89092233 MACE_energy=-351.37342628264656 pbc="T T T"
Fe       1.46495000       0.71583000       1.12880000       3.73230100      -3.41607500      -3.76209700       3.39799489      -3.08168469      -3.02250871
Fe       0.56244000       2.07917000       1.96452000      -3.31290700       4.06628900       2.54508600      -3.28126690       3.59014536       2.23395604
Fe       0.86636000       2.12990000       5.00906000     -10.85567700      -2.87102900      12.20968700     -10.79975427      -2.74074272      12.31247161
Fe       0.24697000       2.61233000       7.83061000      -0.37811800      -2.03816900      -0.08744800      -0.37751666      -1.88672479       0.05798306
Fe       0.35437000       4.66395000       8.16447000      -1.30300600       1.62250000       0.84662400      -1.21438665       1.56825937       0.84948075
Fe       0.83543000       8.00840000       3.01492000       5.54921000      -2.55787300       0.52513800       5.59140865      -2.75867964       0.47811510
Fe       2.03952000       7.84431000       6.63062000      -4.28706100       1.82495200      -1.68802900      -3.93758118       1.81827202      -1.71398180
Fe       3.34318000       0.11090000       2.96052000      -0.46571400      -0.35056300       0.37864800      -0.70052331      -0.10969582       0.40554989
Fe       3.26317000       2.11539000       1.48699000      -3.47884800      -0.03222100       0.61542300      -3.49889351      -0.12063465       0.01266038
Fe       4.14313000       2.75755000       3.31065000      -0.71378000      -2.73118300       1.93004800      -0.57297433      -2.11490162       1.82341008
Fe       2.55051000       2.67374000       7.19710000      -2.55215900      -0.93589000       1.77261600      -2.24221953      -0.82437513       1.67609721
Fe       3.61327000       2.86500000       5.46497000       1.55763200       0.20514300      -0.56676300       1.32683005       0.21236226      -0.35083568
Fe       2.62400000       4.72550000       1.39174000      -1.08585200      -1.19598700       0.59645400      -1.25271189      -0.96371143       0.66535288
Fe       2.20317000       5.21693000       3.87451000      -3.92870900      -4.38103900      -4.92199500      -3.88010140      -4.55464092      -5.27826701
Fe       3.93082000       4.37819000       8.08226000       1.07616800       0.44807800      -0.99700400       1.05563155       0.27430169      -0.72697179
Fe       2.44961000       7.01753000       1.08943000       0.32119000      -1.55635000       3.27006500       0.55083908      -1.50337014       3.23836436
Fe       3.02500000       6.15780000       5.08193000      -1.08486800       1.64126100       3.95415400      -0.17087168       1.77580733       4.44209068
Fe       5.77712000       0.44616000       0.16142000      -2.43333700       0.07175000       4.13474700      -2.21995391       0.30529403       4.30504202
Fe       5.66964000       0.14892000       2.95259000      -3.67617900       1.90971100       0.12919700      -3.54324641       1.92412383       0.34419820
Fe       5.39484000       2.66317000       1.55162000       4.08183700      -3.39937100       3.88213200       4.10310279      -3.71543711       4.23271876
Fe       5.91309000       3.40423000       8.31953000       8.90196200       5.48305700      -2.72562400       8.51843011       5.45197424      -3.42477306
Fe       4.96126000       4.63305000       3.41410000      -3.60269200      -2.00302700       2.25051900      -3.47090528      -2.48279092       2.74328920
Fe       5.11347000       6.81217000       1.78872000      -0.87770500       0.06714300      -1.61156800      -0.79725761       0.32048158      -1.76422911
Fe       5.00950000       6.45991000       8.24507000      -2.30619500      -0.19808200      -1.52355700      -2.27035288      -0.32130705      -1.68774734
Fe       4.64263000       7.71190000       5.75084000       2.50156800       4.23919200      -1.55456800       2.45599039       4.43307183      -1.80490366
Fe       7.32285000       0.33022000       5.03535000      -0.99210900      -0.59745100       4.73628300      -1.01635324      -0.63765678       4.36840996
Fe       6.75330000       1.32958000       7.05071000       0.53851300       2.01290400       0.36400700       0.50575708       1.92508280       0.61652228
Fe       6.82686000       2.53028000       3.66692000      -0.08907100      -0.12987400      -0.26318300       0.15180708      -0.22143413      -0.21532135
Fe       6.83617000       5.56618000       0.59386000       1.74434500       1.47371700      -3.32847200       1.38323647       1.31900359      -3.23166470
Fe       8.27091000       4.29855000       2.87718000       3.23308900       0.33980500       1.37352500       3.11879993       0.31053468       1.37112600
Fe       6.58774000       4.90718000       4.97515000      -1.87594500       0.58060600      -0.05143700      -2.31280376       0.72562944      -0.74343289
Fe       6.86773000       6.79187000       3.27473000       1.52763600      -2.76254700       0.67579100       1.65110893      -2.60658308       0.34175268
Fe       8.09083000       8.29691000       0.84396000      -4.18921500      -1.95965200       9.56442300      -4.17801408      -2.13106439       9.78811744
Fe       6.62133000       7.67903000       7.47205000      -3.65417600       1.51975600      -3.32990400      -3.98130323       1.14586992      -4.02061154
B        3.45077000       6.81738000       6.75435000       2.04131500      -2.79808300       3.80923700       2.01660525      -3.12238266       4.06785840
B        4.67436000       1.10514000       4.73414000       0.75036200       0.95391600      -0.52852700       0.73707356       0.66456704      -0.38278013
B        6.18153000       2.20088000       5.47737000      -4.49435700      -3.20609500      -2.27763700      -4.52333808      -2.97733607      -2.60736416
B        5.08133000       4.10197000       6.35983000       0.35152900       0.25548900      -0.65354500       0.48846006       0.57943973      -0.34058187
B        4.48663000       4.29393000       1.40792000      -0.27448100       1.04603100       0.21283300      -0.19751191       1.28032011      -0.09782270
B        4.96286000       5.88068000       6.14703000       0.60492000      -1.85032800       0.29314600       0.30611076      -1.92297432       0.33600549
B        8.17242000       5.65216000       5.55863000       1.00443800       0.65677900      -0.69824300       1.60729434       0.34091069      -0.32540677
B        7.98743000       6.92663000       6.60530000       5.86774900       2.58695800      -4.05103700       5.40945699       2.47900856      -3.33849196
B        7.10769000       5.72812000       6.91109000      -2.33709700      -3.34606800       1.34633400      -2.58009935      -3.36982981       1.40847153
B        7.81665000       6.81498000       8.33858000       5.04350100      -2.41043400       0.97359300       5.04921704      -2.66071191       0.26792166
Si       0.06983000       0.14925000       7.74742000       4.12649000       2.60901100      -8.87608100       4.13837847       2.66555593      -8.77992657
Si       1.93337000       2.41223000       3.74634000      10.14534600       2.98113100     -12.18526000      10.23137908       2.95179243     -12.05545147
Si       0.75978000       6.02813000       1.69309000      -4.13401100      -0.74920300       1.02787300      -4.03736087      -0.90640529       0.83127728
Si       2.22023000       5.10313000       7.16329000      -1.58663400       1.19675500      -1.89967800      -1.60655203       1.05983860      -1.75145598
Si       3.27754000       8.17117000       8.35443000       4.04667900       4.58101600      -2.24829100       4.03765708       4.57521622      -2.01562344
Si       4.48145000       2.18337000       8.34202000      -5.72220500      -5.96162700      -4.99603400      -5.81357122      -5.40079886      -5.03255403
Si       6.36439000       4.54151000       2.12641000       2.28764700      -2.33178900       1.39384200       2.15970972      -2.06570633       1.42584071
Si       4.52267000       6.51460000       3.75633000       0.42177200       5.22743800       1.25328700       0.24340027       5.29504777       1.22502168
Si       7.68278000       0.22257000       3.11016000      -0.17295300       4.89916800      -3.86478000      -0.06828707       4.76389211      -4.04960231
Si       7.35363000       3.38410000       6.13231000       4.40786200       1.27045000       2.62604800       4.31003262       1.44577712       2.89320474
54
Lattice="8.579999685 0.0 0.0 0.0 8.579999685 0.0 0.0 0.0 8.5799996" Properties=species:S:1:pos:R:3:REF_forces:R:3:MACE_forces:R:3 config_type=Fe34B10Si10 REF_energy=-354.71875992 MACE_energy=-352.3459402422569 pbc="T T T"
Fe       0.43313000       1.19321000       2.96848000       1.47291300       2.99028000       0.61180900       1.41047912       2.63251122       0.39261779
Fe       0.91365000       1.12516000       8.09995000       2.76260400      -2.00335600       1.20968300       2.41711605      -1.56751743       1.24786066
Fe       1.17142000       2.67870000       5.23446000      -1.90323000       6.04651700       0.58026800      -2.55766181       6.57744723       0.33609232
Fe       0.60772000       3.85484000       0.87278000       2.66909500       4.89444800       4.53699300       2.37793023       4.95574737       4.22314324
Fe       1.41565000       3.44858000       3.01161000      -0.29549500       2.03729500      -0.74017400      -0.05215171       2.21685140      -1.09923071
Fe       0.04226000       2.91249000       8.09734000      -3.39897200      -2.84207300      -2.69442200      -2.82053356      -2.86327274      -2.66761597
Fe       1.33282000       7.09057000       5.22634000      -0.45239700      -1.35392500       0.92503500      -0.34867964      -1.21543675       0.76868516
Fe       2.06045000       7.92051000       0.98063000      -3.11321000      -0.30108300      -2.49280600      -3.55831336      -0.44124012      -2.50503435
Fe       2.03627000       8.24295000       3.50701000      -1.42216600       4.38122900       0.88517600      -1.90822532       4.21972122       0.79140810
Fe       0.01253000       8.02686000       7.00667000       2.58679700       0.98610200     -11.80201700       2.41756212       0.68439241     -12.02149441
Fe       3.00353000       0.57289000       6.13981000      -1.03922300       0.18357300       0.93137300      -0.79799985       0.22277443       0.94219726
Fe       3.69949000       2.65196000       7.51811000       2.76433000      -4.34399200      -3.80269000       2.11906303      -3.97376888      -3.55479738
Fe       2.94478000       6.44154000       3.03987000       7.21319500      -3.66655800      -1.17614100       7.20049676      -3.47474120      -0.98391819
Fe       2.94309000       5.75189000       6.64956000      -6.24071800      -0.74678300       3.86021800      -6.03807477      -0.66215360       4.50541061
Fe       3.71160000       8.39321000       1.86324000       2.24845700      -0.43546600       0.28887200       2.74503860      -0.24406057       0.92266161
Fe       4.07810000       8.43915000       4.32840000       2.88035800       1.28304800      -0.49181300       3.00515808       1.05441628      -0.73011842
Fe       5.57499000       0.73262000       6.31633000      -3.12774100      -1.68249800      -0.98058200      -2.86163107      -1.98056269      -1.40823830
Fe       4.70712000       1.94493000       1.65492000      -2.04675700       4.97917500      -3.67899600      -1.47799354       4.65558102      -3.70864067
Fe       4.73401000       4.18392000       1.24748000       0.71501700       1.80608500      -0.06999200       0.61035057       1.77501255      -0.09911117
Fe       4.56687000       4.22266000       4.39618000       0.73801700       3.32591500      -2.10569900       0.34486074       3.62181350      -2.13366208
Fe       4.51224000       4.61167000       7.05684000       2.53211900      -0.41024200       0.53825400       2.75262673      -0.57162690       0.38425675
Fe       6.32808000       6.81945000       4.24288000      -3.20445400      -0.33519400      -1.28892300      -2.31026500      -0.29657302      -1.01892074
Fe       6.22240000       7.17309000       0.16230000      -3.30904600      -2.75215800       1.90373500      -3.37608532      -2.94718739       2.05581685
Fe       4.54224000       7.44382000       7.03838000       0.17895600      -5.02037800      -8.74618400       0.23241926      -5.52050606      -8.55758846
Fe       4.73272000       8.55832000       8.35561000      -0.10588400       8.96287400       6.54083400      -0.35761911       8.99700329       6.09989905
Fe       7.67285000       2.82429000       2.17742000      -2.12886900      -0.76272600      -2.06587500      -2.11547977      -0.72139958      -1.71303316
Fe       6.74071000       1.77406000       4.33655000       0.47479500       0.50025500      -0.42349800       0.28134443       0.57424901      -0.70345991
Fe       7.16362000       1.61896000       6.68131000       5.11373900       1.83737400       0.70818800       4.79837336       1.64684373       0.82464317
Fe       6.73653000       4.13840000       7.84564000       0.19062300       0.32905600       3.59274800       0.23944631       0.73578406       3.66661499
Fe       6.61248000       5.35948000       2.44590000       0.96755600      -0.77403900      -0.47053600       0.69542623      -0.46955248      -0.04090913
Fe       8.39074000       4.95678000       4.82580000       0.50677700       3.21370700       1.22596300       0.61257273       2.67261208       0.99691028
Fe       6.62275000       6.29700000       6.29237000       0.91106900      -0.58785400       1.74696000       0.57835559      -0.43846010       1.47553596
Fe       8.00875000       8.14674000       2.12563000      -1.25903800      -1.94608200      -3.37077000      -1.21632044      -1.43365051      -3.71526189
Fe       7.96861000       8.10559000       4.08816000       1.24434400       0.03207600       4.40361200       0.43162636      -0.08793208       4.85065223
B        3.14587000       1.61638000       2.59818000      -3.96044800      -1.57388800      -2.24367700      -4.16389392      -1.13149777      -1.90197529
B        4.07212000       1.93087000       3.78701000       0.55534200       0.12762300      -3.25123200       0.80526624      -0.12903313      -3.41843043
B        2.24412000       1.90783000       4.05913000      -1.80380000      -9.70850100      -5.48536600      -1.99514100      -9.96510072      -5.28102934
B        2.90130000       3.06657000       4.45062000       2.48509300       7.60479000      -1.50334300       3.44073721       6.52777328      -1.23882527
B        2.82587000       3.80138000       5.80651000       0.21675600       2.27927400       3.92227300       0.42581355       2.51554956       3.47674229
B        2.60929000       5.04297000       1.66311000       0.12617300      -0.77075900      -0.46531300       0.00338225      -0.80110197      -0.45150195
B        2.47198000       4.95014000       4.32601000      -0.76752800      -1.31946700       0.35153300      -0.92175239      -1.15157477       0.30039529
B        2.73354000       7.81887000       7.66829000      -1.47869400      -0.15377200       0.00458000      -1.49601838      -0.10126238      -0.10676386
B        5.68071000       2.28134000       7.79544000      -0.95924500       0.41857400       1.11780500      -0.87594538       0.32016945       1.15865282
B        7.77536000       3.70665000       3.76574000      -0.44877700      -1.48394500      -0.38974400      -0.41433571      -1.55544328      -0.41169721
Si       0.79518000       0.92195000       5.77957000      -1.66645900      -4.94136200      -1.10925300      -1.52855675      -4.61430990      -1.05631456
Si       0.88055000       4.20706000       6.73551000       1.15626000       3.58432200      -0.32349000       1.16033525       3.36078999       0.07862316
Si       1.15025000       6.44729000       2.43826000      -7.77651300      -1.83655100      -1.54918700      -7.74365349      -1.98505138      -1.52409748
Si       2.82820000       3.29548000       0.50208000      -4.05499500       1.58525200       5.32597100      -3.85684010       1.30789807       5.19887209
Si       4.14031000       6.38272000       0.30005000      -2.16949800      -2.44928300       2.57761000      -2.30201262      -2.61017194       2.38254325
Si       3.68345000       6.43010000       5.01209000       3.98893100       0.98565200      -2.13453700       3.81035926       1.15117645      -2.18953267
Si       5.73751000       0.59059000       2.53265000       5.08228400      -4.90021500       2.23852200       5.21404890      -4.57307284       2.68361567
Si       4.51163000       2.47994000       5.36819000       2.60737700      -2.86786400       7.12589500       2.69474559      -2.50278212       6.94041461
Si       6.43436000       3.75222000       5.86206000       1.38008400       0.66155200      -3.64612400       1.28855583       0.54822882      -3.54449609
Si       8.06432000       7.52318000       8.55473000       2.36409700      -3.06603600      11.34847700       2.98169368      -2.94430211      11.08143389
18
Lattice="6.5 0.0 0.0 0.0 6.5 0.0 0.0 0.0 6.5" Properties=species:S:1:pos:R:3:REF_forces:R:3:MACE_forces:R:3 config_type=Fe12B3Si3 REF_energy=-113.87843945 MACE_energy=-117.78329340058696 pbc="T T T"
Fe       5.40234000       5.43492000       1.53729000      -1.39532100       2.04028400       0.71142300      -1.81219297       2.03922167       0.81716739
Fe       2.09750000       2.10361000       0.54730000       2.35673700      -0.33103000       1.27254800       2.47085616      -0.89145308       1.87089837
Fe       2.84360000       1.73250000       3.81271000       2.28004000      -1.18251600      -0.27344700       2.11968856      -1.23606790      -0.16588071
Fe       0.77541000       4.93717000       1.04317000       1.56096300      -3.83372900       1.76362000       1.66874054      -3.59889149       1.35020360
Fe       0.07665000       3.70431000       3.74351000      -0.75952900      -0.39175400      -2.23189700      -1.27456324      -0.47069621      -2.24643182
Fe       4.77171000       3.58949000       4.78220000      -1.99219600      -4.62409700       0.48420500      -1.37567351      -3.97471721       0.49215078
Fe       4.12430000       1.49867000       1.46476000       0.29771700      -2.38794700       0.28396300       0.19865565      -2.97141245       0.43979576
Fe       0.95387000       5.17746000       5.28728000      -0.57085000      -0.50160400      -1.80733600      -0.53120124      -0.28412278      -1.12468100
Fe       1.93602000       3.09888000       2.36598000      -0.08855100       0.43128300      -0.27209000      -0.03593563       1.06142306      -1.00273135
Fe       5.69037000       1.28357000       4.20026000      -0.40866000      -0.49067900       0.18976600      -0.65984514      -0.60395061       0.19170136
Fe       1.94321000       2.86141000       5.39871000      -0.55906500       0.73218900      -1.80086600      -0.66558559       1.08574509      -1.65878186
Fe       4.33122000       5.38124000       5.25469000      -0.73272900       4.56545400       1.52017900      -0.53874876       3.95868799       1.34184972
B        0.37598000       1.64060000       1.21420000      -3.21263000       2.85095800       0.76078000      -2.91943180       2.52728880       0.01858012
B        1.88110000       4.04794000       3.96741000       2.48956600       2.45119300      -0.32261600       2.28414949       2.51084045      -0.19662763
B        3.63878000       0.94242000       5.41981000      -0.01444500       0.67937600       0.95779200       0.42967571       0.48497795       0.96195223
Si       1.19380000       0.26963000       0.19686000       0.54051800       0.24528300      -1.93219100       0.71563247       0.29686942      -1.81014089
Si       4.57825000       3.47658000       1.16117000       0.15934200       1.26766700      -0.81102600      -0.13496380       1.53415671      -0.84186831
Si       1.09558000       0.76720000       2.75124000       0.04909300      -1.52033200       1.50719200       0.06074312      -1.46789940       1.56284423
54
Lattice="8.579999685 0.0 0.0 0.0 8.579999685 0.0 0.0 0.0 8.5799996" Properties=species:S:1:pos:R:3:REF_forces:R:3:MACE_forces:R:3 config_type=Fe34B10Si10 REF_energy=-356.0869274 MACE_energy=-353.8622771222263 pbc="T T T"
Fe       0.92877000       1.08311000       2.12831000      -0.53214900      -1.15432400       0.53007800      -0.88532365      -0.95554154       0.68332745
Fe       1.12794000       0.45096000       7.37327000      -2.86345100       2.18226700       1.45805300      -2.48518455       1.96506579       1.25468704
Fe       0.91289000       3.61082000       1.96264000      -1.66570100       0.50807500      -4.76654600      -1.97530551       0.50357704      -4.67190528
Fe       0.97242000       3.25012000       3.83975000      -0.85629000      -1.23507100      -0.91491200      -0.65525360      -1.36537670       0.06756110
Fe       1.43574000       3.84332000       5.84621000      -1.94378300      -0.72872400       4.94145300      -1.90310775      -0.66407375       4.39201216
Fe       0.45897000       5.99881000       1.32384000       1.86679900       1.45939200      -0.33976700       2.12402519       1.52373476      -0.04484610
Fe       0.05714000       6.25044000       6.01250000       0.66851500      -0.88142700       1.67028200       0.45631775      -1.04981537       1.30392156
Fe       1.87526000       7.05991000       7.27744000      -5.90957000       6.81146600       5.95768600      -5.47416567       7.14643023       5.98985854
Fe       4.21220000       0.80536000       3.81626000       0.44958900      -1.97725700       0.54591300       0.64228588      -1.88206869       0.39851741
Fe       2.64196000       0.75311000       5.88605000       0.80305000      -0.92688600      -1.50973400       0.41398011      -0.77571648      -1.54470454
Fe       2.51735000       4.27963000       7.86001000      -0.17185400       2.88247300       0.00075600      -0.33523408       2.47826766      -0.20470517
Fe       2.46175000       4.76211000       4.38544000       2.27245000       6.36429500      -0.60000700       2.18863433       5.90325940      -0.78681950
Fe       3.99132000       4.46692000       6.09268000      -0.21521200      -1.96607600      -0.25853400      -0.57900878      -2.16458555      -0.47257279
Fe       4.03283000       6.20484000       2.50717000       0.32509400      -1.83048700       1.07686200       0.40659260      -1.81972672       1.02183835
Fe       2.62183000       8.12097000       1.25125000      -5.45108600      -1.04608100      -0.88869000      -5.37302792      -1.33032144      -0.49911241
Fe       2.34208000       7.49949000       3.33705000      -1.45221900       0.10179900       1.96325000      -1.38347380       0.25877932       2.04278301
Fe       4.67554000       0.98699000       8.35162000       1.97529500       0.95938300       0.07305200       1.96220734       1.28262037       0.23824996
Fe       4.68615000       2.28426000       1.60336000       6.03713100       4.39249100       1.56082500       6.90568960       4.44394290       1.08200867
Fe       4.95897000       4.28949000       0.91503000       1.24258400       3.77490300      -1.07876200       1.13136336       3.95437722      -1.47461875
Fe       5.62605000       3.84953000       3.25301000      -4.56775200       3.43217100       2.09526400      -4.67388187       3.36122168       1.72158273
Fe       5.63153000       5.70233000       4.67966000       0.04558900       0.36352900      -0.74034800      -0.03589152       0.23457234      -0.71419138
Fe       5.00954000       6.14620000       6.89198000       4.51113600      -2.60361300       1.43664400       3.89330237      -2.24962511       1.31893753
Fe       5.34723000       7.32984000       0.56425000       3.41130600      -7.55812200      -7.44238600       3.38511518      -6.97453072      -7.29397004
Fe       4.57141000       8.20633000       1.67615000      -2.51651100       6.57056000       9.11650700      -2.41199679       5.35148930       9.29573763
Fe       5.67084000       7.83697000       6.02451000      -0.02983000       3.57151200       0.33120700      -0.08618614       3.67574927       0.10516951
Fe       7.65837000       1.05332000       0.64336000       1.95813700       2.93603900      -3.62028800       1.60485683       2.56827549      -3.61783180
Fe       7.23579000       1.49494000       3.62009000       0.88838800      -1.50203300       3.00240400       0.76278179      -1.42134153       3.12236644
Fe       6.96409000       1.59543000       6.70415000       0.40175100      -2.57633900      -0.54943900       0.43278520      -2.54702740      -0.41421671
Fe       6.97946000       3.05325000       2.27831000       3.01329100      -2.85779700      -7.80747400       2.56149082      -3.46167571      -6.90496002
Fe       7.05854000       3.62734000       7.13255000       0.94483300       2.42104600       2.56329500       0.97368652       2.54764009       2.16524665
Fe       7.47490000       4.49325000       0.92243000      -3.13561000       0.06366500       0.11142200      -2.92690569       0.52373813      -0.52025258
Fe       7.76499000       5.40883000       4.05655000       3.42051700      -2.49950500       1.10150300       3.68303200      -2.46852753       1.01865533
Fe       6.91686000       6.16423000       2.38917000      -4.34160700       0.52717700      -3.24358900      -4.65516896       0.32220117      -2.95042522
Fe       7.31773000       7.39473000       4.73130000      -1.41907300       3.06948200       1.38572900      -1.40491955       2.79504712       1.74485140
B        1.63947000       5.44017000       2.85377000      -1.37965300       1.67099600      -0.34434500      -1.68962618       1.82638897      -0.59022030
B        3.47444000       1.29905000       1.69513000      -6.04542900      -7.46227000      -1.52467000      -6.31743013      -7.54027261      -1.55396146
B        2.31673000       1.42955000       3.77944000      -1.85652800      -2.14982900       3.21956500      -1.86658887      -1.99952878       3.57854691
B        3.17088000       0.01260000       8.16689000      -2.14308300      -0.12737100      -3.63430700      -1.73853339       0.05119883      -3.91122103
B        2.48887000       2.23189000       2.44876000      -1.30373000       3.96631200      -0.94871100      -0.75438651       3.97024594      -0.80177011
B        3.55016000       3.21990000       0.17024000       2.13469500      -3.52588700       0.23974700       1.88859524      -3.31359758       0.80079461
B        3.12966000       3.07291000       4.24572000      -6.99085300       0.34377600      -0.16579100      -7.09136029      -0.01443000      -0.05323601
B        2.38358000       5.95301000       6.34325000       2.25901800      -8.76611800      -6.31465800       2.19278026      -8.93053926      -6.60314892
B        4.46260000       2.62992000       4.23823000       7.08507900      -1.75449200       0.40993300       6.86262628      -1.63246665       0.27803487
B        7.51183000       3.59374000       3.85724000       1.49621300      -1.20378300       3.39561400       1.65059149      -0.93041863       3.52363905
Si       0.50050000       1.66927000       5.10425000      -1.02554400      -2.67263500       2.61432900      -0.81166308      -2.64100558       2.42407490
Si       0.41923000       4.50138000       8.15701000       0.82744200      -0.47721100      -2.57541600       1.02976509      -0.17472434      -2.84081145
Si       2.90131000       4.25049000       1.93860000       2.71957100       0.04497600      -0.88170100       2.81531993       0.13187436      -1.15946561
Si       3.74353000       6.85388000       5.19884000      -1.20766000       1.80214700      -2.20114300      -1.03012945       1.97694325      -2.34011987
Si       3.54209000       6.47938000       8.21357000      -0.45014500      -1.75854100       4.24377300      -0.41640986      -1.92002769       4.60232556
Si       4.55252000       1.74669000       6.40118000       0.28733400       0.20348600      -1.69136000       0.05770786      -0.08772331      -1.43287403
Si       5.87020000       3.30923000       5.41310000       1.93974000       0.55942400      -1.14043100       2.02050609       0.95556474      -0.80102580
Si       6.68392000       0.09389000       2.07850000      -2.78148600      -1.30329400       2.70552900      -2.56763297      -0.72438990       2.70155651
Si       7.30980000       7.36953000       0.08595000       4.18267400      -0.22507900      -1.67891000       4.13223932      -0.63374357      -1.97936214
Si       8.41387000       7.50606000       2.97540000       5.08859000       1.78741200      -0.88875800       5.34951811       1.92061676      -0.69393588
54
Lattice="8.579999685 0.0 0.0 0.0 8.579999685 0.0 0.0 0.0 8.5799996" Properties=species:S:1:pos:R:3:REF_forces:R:3:MACE_forces:R:3 config_type=Fe34B10Si10 REF_energy=-359.84864784 MACE_energy=-357.98574083632724 pbc="T T T"
Fe       0.39531000       2.37288000       0.87042000       3.27925500       2.43832800      -1.60261100       3.03805759       2.64505725      -1.98049180
Fe       0.75383000       1.65209000       3.11094000       1.30783500      -0.34615400      -0.09267000       0.78058905      -0.49053129       0.38577115
Fe       1.33201000       3.79282000       7.26231000      -2.40668100      -1.18131200       0.32245500      -2.33386494      -0.90769266       0.11504518
Fe       0.64436000       4.41396000       2.97573000       2.42004200      -2.26182600       0.38963900       2.22814750      -1.86117727       0.24503562
Fe       0.14751000       6.42079000       3.51005000      -3.07002100       1.32407200      -2.30638400      -2.61667508       1.05621042      -2.26628241