54
Lattice="8.579999685 0.0 0.0 0.0 8.579999685 0.0 0.0 0.0 8.5799996" Properties=species:S:1:pos:R:3:REF_forces:R:3:MACE_forces:R:3 config_type=Fe34B10Si10 REF_energy=-352.89092233 MACE_energy=-353.276513501704 pbc="T T T"
Fe       1.46495000       0.71583000       1.12880000       3.73230100      -3.41607500      -3.76209700       3.65198890      -3.43500067      -3.51851342
Fe       0.56244000       2.07917000       1.96452000      -3.31290700       4.06628900       2.54508600      -3.34467428       4.05824382       2.34404337
Fe       0.86636000       2.12990000       5.00906000     -10.85567700      -2.87102900      12.20968700     -10.87796534      -2.94451271      12.20656769
Fe       0.24697000       2.61233000       7.83061000      -0.37811800      -2.03816900      -0.08744800      -0.37489137      -2.05438712       0.08634043
Fe       0.35437000       4.66395000       8.16447000      -1.30300600       1.62250000       0.84662400      -1.35851254       1.77262594       0.77743341
Fe       0.83543000       8.00840000       3.01492000       5.54921000      -2.55787300       0.52513800       5.60778418      -2.63727466       0.47024600
Fe       2.03952000       7.84431000       6.63062000      -4.28706100       1.82495200      -1.68802900      -4.08251997       2.03072823      -1.72521317
Fe       3.34318000       0.11090000       2.96052000      -0.46571400      -0.35056300       0.37864800      -0.49763522      -0.16801060       0.45358887
Fe       3.26317000       2.11539000       1.48699000      -3.47884800      -0.03222100       0.61542300      -3.30217470      -0.25330200       0.25704764
Fe       4.14313000       2.75755000       3.31065000      -0.71378000      -2.73118300       1.93004800      -0.69813987      -2.44311726       1.88044412
Fe       2.55051000       2.67374000       7.19710000      -2.55215900      -0.93589000       1.77261600      -2.25544440      -1.02729712       1.69356609
Fe       3.61327000       2.86500000       5.46497000       1.55763200       0.20514300      -0.56676300       1.45753206       0.29198152      -0.28951119
Fe       2.62400000       4.72550000       1.39174000      -1.08585200      -1.19598700       0.59645400      -1.33286495      -0.97644460       0.67568320
Fe       2.20317000       5.21693000       3.87451000      -3.92870900      -4.38103900      -4.92199500      -3.92153265      -4.33225214      -5.07617863
Fe       3.93082000       4.37819000       8.08226000       1.07616800       0.44807800      -0.99700400       0.95019409       0.23448856      -1.00300529
Fe       2.44961000       7.01753000       1.08943000       0.32119000      -1.55635000       3.27006500       0.44138107      -1.59711084       3.35037610
Fe       3.02500000       6.15780000       5.08193000      -1.08486800       1.64126100       3.95415400      -0.31969706       1.73347647       4.05753838
Fe       5.77712000       0.44616000       0.16142000      -2.43333700       0.07175000       4.13474700      -2.41853766       0.41409077       4.17499795
Fe       5.66964000       0.14892000       2.95259000      -3.67617900       1.90971100       0.12919700      -3.69034476       1.65872640       0.31503788
Fe       5.39484000       2.66317000       1.55162000       4.08183700      -3.39937100       3.88213200       3.98780902      -3.76590968       4.15046826
Fe       5.91309000       3.40423000       8.31953000       8.90196200       5.48305700      -2.72562400       8.73533239       5.39854354      -2.75920594
Fe       4.96126000       4.63305000       3.41410000      -3.60269200      -2.00302700       2.25051900      -3.88923716      -2.36173994       2.39635676
Fe       5.11347000       6.81217000       1.78872000      -0.87770500       0.06714300      -1.61156800      -0.73083435       0.13028523      -1.65675137
Fe       5.00950000       6.45991000       8.24507000      -2.30619500      -0.19808200      -1.52355700      -2.20899086      -0.02621568      -1.76222844
Fe       4.64263000       7.71190000       5.75084000       2.50156800       4.23919200      -1.55456800       2.55773099       4.28247809      -1.60510712
Fe       7.32285000       0.33022000       5.03535000      -0.99210900      -0.59745100       4.73628300      -0.96087904      -0.35191426       4.69618892
Fe       6.75330000       1.32958000       7.05071000       0.53851300       2.01290400       0.36400700       0.48748321       1.86684107       0.32421975
Fe       6.82686000       2.53028000       3.66692000      -0.08907100      -0.12987400      -0.26318300       0.03470959      -0.19151750      -0.20286577
Fe       6.83617000       5.56618000       0.59386000       1.74434500       1.47371700      -3.32847200       1.78187308       1.74928700      -3.48627298
Fe       8.27091000       4.29855000       2.87718000       3.23308900       0.33980500       1.37352500       3.08549168       0.18123358       1.32419144
Fe       6.58774000       4.90718000       4.97515000      -1.87594500       0.58060600      -0.05143700      -2.07189643       0.59424749      -0.49771579
Fe       6.86773000       6.79187000       3.27473000       1.52763600      -2.76254700       0.67579100       1.47044846      -2.44451604       0.36436248
Fe       8.09083000       8.29691000       0.84396000      -4.18921500      -1.95965200       9.56442300      -4.18505483      -2.23267261       9.64151776
Fe       6.62133000       7.67903000       7.47205000      -3.65417600       1.51975600      -3.32990400      -3.98718731       1.29932954      -3.46911186
B        3.45077000       6.81738000       6.75435000       2.04131500      -2.79808300       3.80923700       1.96763637      -2.88330383       3.91157563
B        4.67436000       1.10514000       4.73414000       0.75036200       0.95391600      -0.52852700       0.79485017       0.95601020      -0.42505593
B        6.18153000       2.20088000       5.47737000      -4.49435700      -3.20609500      -2.27763700      -4.63222877      -3.15642082      -2.46958638
B        5.08133000       4.10197000       6.35983000       0.35152900       0.25548900      -0.65354500       0.48716838       0.27281634      -0.56475675
B        4.48663000       4.29393000       1.40792000      -0.27448100       1.04603100       0.21283300      -0.23661063       1.23166939       0.22286922
B        4.96286000       5.88068000       6.14703000       0.60492000      -1.85032800       0.29314600       0.46128137      -1.84621959       0.12539811
B        8.17242000       5.65216000       5.55863000       1.00443800       0.65677900      -0.69824300       1.07163085       0.69638832      -0.23009539
B        7.98743000       6.92663000       6.60530000       5.86774900       2.58695800      -4.05103700       5.77185338       2.30009413      -3.53451782
B        7.10769000       5.72812000       6.91109000      -2.33709700      -3.34606800       1.34633400      -2.13001123      -3.42748542       1.49889464
B        7.81665000       6.81498000       8.33858000       5.04350100      -2.41043400       0.97359300       4.98959279      -2.58301540       0.49167451
Si       0.06983000       0.14925000       7.74742000       4.12649000       2.60901100      -8.87608100       3.96581359       2.57411609      -8.81133135
Si       1.93337000       2.41223000       3.74634000      10.14534600       2.98113100     -12.18526000      10.21453409       3.04498227     -12.01374214
Si       0.75978000       6.02813000       1.69309000      -4.13401100      -0.74920300       1.02787300      -4.13297295      -0.87421914       0.95857733
Si       2.22023000       5.10313000       7.16329000      -1.58663400       1.19675500      -1.89967800      -1.66620937       1.16749710      -1.84274969
Si       3.27754000       8.17117000       8.35443000       4.04667900       4.58101600      -2.24829100       3.90871830       4.51177266      -2.36923998
Si       4.48145000       2.18337000       8.34202000      -5.72220500      -5.96162700      -4.99603400      -5.45314959      -5.89739370      -5.15833793
Si       6.36439000       4.54151000       2.12641000       2.28764700      -2.33178900       1.39384200       2.57739531      -2.14668815       1.24638055
Si       4.52267000       6.51460000       3.75633000       0.42177200       5.22743800       1.25328700       0.12376841       5.31516420       1.34736957
Si       7.68278000       0.22257000       3.11016000      -0.17295300       4.89916800      -3.86478000      -0.22724554       4.85939341      -3.93124372
Si       7.35363000       3.38410000       6.13231000       4.40786200       1.27045000       2.62604800       4.40344108       1.43143010       2.95938200
54
Lattice="8.579999685 0.0 0.0 0.0 8.579999685 0.0 0.0 0.0 8.5799996" Properties=species:S:1:pos:R:3:REF_forces:R:3:MACE_forces:R:3 config_type=Fe34B10Si10 REF_energy=-354.71875992 MACE_energy=-355.3776573426391 pbc="T T T"
Fe       0.43313000       1.19321000       2.96848000       1.47291300       2.99028000       0.61180900       1.46536281       2.89305321       0.38409472
Fe       0.91365000       1.12516000       8.09995000       2.76260400      -2.00335600       1.20968300       2.38443086      -1.83087876       1.08698340
Fe       1.17142000       2.67870000       5.23446000      -1.90323000       6.04651700       0.58026800      -1.68251698       6.13516805       0.36527726
Fe       0.60772000       3.85484000       0.87278000       2.66909500       4.89444800       4.53699300       2.65426357       5.10017928       4.11959765
Fe       1.41565000       3.44858000       3.01161000      -0.29549500       2.03729500      -0.74017400       0.00685621       1.92728761      -0.67001406
Fe       0.04226000       2.91249000       8.09734000      -3.39897200      -2.84207300      -2.69442200      -2.77709161      -3.00829410      -2.44970699
Fe       1.33282000       7.09057000       5.22634000      -0.45239700      -1.35392500       0.92503500      -0.23400978      -1.46850609       0.94616096
Fe       2.06045000       7.92051000       0.98063000      -3.11321000      -0.30108300      -2.49280600      -3.28011851      -0.43536639      -2.48990724
Fe       2.03627000       8.24295000       3.50701000      -1.42216600       4.38122900       0.88517600      -1.52843989       4.10316973       0.63168743
Fe       0.01253000       8.02686000       7.00667000       2.58679700       0.98610200     -11.80201700       2.47304170       0.87432257     -11.97032575
Fe       3.00353000       0.57289000       6.13981000      -1.03922300       0.18357300       0.93137300      -0.77498271       0.14754286       0.98379893
Fe       3.69949000       2.65196000       7.51811000       2.76433000      -4.34399200      -3.80269000       2.60539430      -4.12957404      -3.68245922
Fe       2.94478000       6.44154000       3.03987000       7.21319500      -3.66655800      -1.17614100       6.99123058      -3.45578667      -0.98755791
Fe       2.94309000       5.75189000       6.64956000      -6.24071800      -0.74678300       3.86021800      -6.43178473      -0.64367753       4.01178824
Fe       3.71160000       8.39321000       1.86324000       2.24845700      -0.43546600       0.28887200       2.36749111      -0.08275167       0.68092279
Fe       4.07810000       8.43915000       4.32840000       2.88035800       1.28304800      -0.49181300       2.84913651       1.31098105      -0.79022286
Fe       5.57499000       0.73262000       6.31633000      -3.12774100      -1.68249800      -0.98058200      -2.78110434      -1.73917217      -0.92529622
Fe       4.70712000       1.94493000       1.65492000      -2.04675700       4.97917500      -3.67899600      -2.12289797       4.77873384      -3.42441431
Fe       4.73401000       4.18392000       1.24748000       0.71501700       1.80608500      -0.06999200       0.71270912       1.96917007      -0.13294544
Fe       4.56687000       4.22266000       4.39618000       0.73801700       3.32591500      -2.10569900       0.50914217       3.16771833      -2.13815609
Fe       4.51224000       4.61167000       7.05684000       2.53211900      -0.41024200       0.53825400       2.95965555      -0.72548846       0.48394420
Fe       6.32808000       6.81945000       4.24288000      -3.20445400      -0.33519400      -1.28892300      -2.80827661      -0.23411928      -1.07244760
Fe       6.22240000       7.17309000       0.16230000      -3.30904600      -2.75215800       1.90373500      -3.49014428      -2.96066018       2.03338060
Fe       4.54224000       7.44382000       7.03838000       0.17895600      -5.02037800      -8.74618400       0.31557566      -5.28823899      -8.86966251
Fe       4.73272000       8.55832000       8.35561000      -0.10588400       8.96287400       6.54083400      -0.33520309       9.33780337       6.19191554
Fe       7.67285000       2.82429000       2.17742000      -2.12886900      -0.76272600      -2.06587500      -2.13237909      -0.82237355      -1.97352106
Fe       6.74071000       1.77406000       4.33655000       0.47479500       0.50025500      -0.42349800       0.07496408       0.40664003      -0.44539408
Fe       7.16362000       1.61896000       6.68131000       5.11373900       1.83737400       0.70818800       4.69070535       1.61417711       0.62959589
Fe       6.73653000       4.13840000       7.84564000       0.19062300       0.32905600       3.59274800       0.17426000       0.46858892       3.60701362
Fe       6.61248000       5.35948000       2.44590000       0.96755600      -0.77403900      -0.47053600       0.85614608      -0.66824842      -0.43895975
Fe       8.39074000       4.95678000       4.82580000       0.50677700       3.21370700       1.22596300       0.57525685       3.14966296       1.08442732
Fe       6.62275000       6.29700000       6.29237000       0.91106900      -0.58785400       1.74696000       0.82883746      -0.49016041       1.60603279
Fe       8.00875000       8.14674000       2.12563000      -1.25903800      -1.94608200      -3.37077000      -0.86160668      -1.90489948      -3.43384365
Fe       7.96861000       8.10559000       4.08816000       1.24434400       0.03207600       4.40361200       0.72793562       0.04884668       4.57266260
B        3.14587000       1.61638000       2.59818000      -3.96044800      -1.57388800      -2.24367700      -3.98769490      -1.48458370      -2.01894684
B        4.07212000       1.93087000       3.78701000       0.55534200       0.12762300      -3.25123200       0.37921172       0.16424912      -3.22257145
B        2.24412000       1.90783000       4.05913000      -1.80380000      -9.70850100      -5.48536600      -1.88368775     -10.03942662      -5.62995178
B        2.90130000       3.06657000       4.45062000       2.48509300       7.60479000      -1.50334300       2.83933554       7.25018055      -1.50760254
B        2.82587000       3.80138000       5.80651000       0.21675600       2.27927400       3.92227300       0.26867608       2.18521361       3.93811501
B        2.60929000       5.04297000       1.66311000       0.12617300      -0.77075900      -0.46531300      -0.02506661      -0.83202312      -0.45730001
B        2.47198000       4.95014000       4.32601000      -0.76752800      -1.31946700       0.35153300      -0.80045754      -1.21676446       0.42949158
B        2.73354000       7.81887000       7.66829000      -1.47869400      -0.15377200       0.00458000      -1.53310653      -0.16941056       0.22306236
B        5.68071000       2.28134000       7.79544000      -0.95924500       0.41857400       1.11780500      -0.96987616       0.38798213       1.07810798
B        7.77536000       3.70665000       3.76574000      -0.44877700      -1.48394500      -0.38974400      -0.54055399      -1.41311432      -0.08279012
Si       0.79518000       0.92195000       5.77957000      -1.66645900      -4.94136200      -1.10925300      -1.61922770      -5.00336095      -0.96565275
Si       0.88055000       4.20706000       6.73551000       1.15626000       3.58432200      -0.32349000       1.11109462       3.68015252      -0.22436651
Si       1.15025000       6.44729000       2.43826000      -7.77651300      -1.83655100      -1.54918700      -7.81071948      -1.71817934      -1.70211588
Si       2.82820000       3.29548000       0.50208000      -4.05499500       1.58525200       5.32597100      -4.06247363       1.39362596       5.24543204
Si       4.14031000       6.38272000       0.30005000      -2.16949800      -2.44928300       2.57761000      -2.31496392      -2.39643738       2.46628970
Si       3.68345000       6.43010000       5.01209000       3.98893100       0.98565200      -2.13453700       3.85977044       1.16659841      -2.16519183
Si       5.73751000       0.59059000       2.53265000       5.08228400      -4.90021500       2.23852200       5.10317616      -4.85488081       2.50076257
Si       4.51163000       2.47994000       5.36819000       2.60737700      -2.86786400       7.12589500       2.80246819      -2.59195842       7.08889014
Si       6.43436000       3.75222000       5.86206000       1.38008400       0.66155200      -3.64612400       1.49871874       0.72072079      -3.74283927
Si       8.06432000       7.52318000       8.55473000       2.36409700      -3.06603600      11.34847700       2.70353744      -2.77343290      11.22472840
18
Lattice="6.5 0.0 0.0 0.0 6.5 0.0 0.0 0.0 6.5" Properties=species:S:1:pos:R:3:REF_forces:R:3:MACE_forces:R:3 config_type=Fe12B3Si3 REF_energy=-113.87843945 MACE_energy=-113.06861364560262 pbc="T T T"
Fe       5.40234000       5.43492000       1.53729000      -1.39532100       2.04028400       0.71142300      -1.01083017       1.82768624       0.69825712
Fe       2.09750000       2.10361000       0.54730000       2.35673700      -0.33103000       1.27254800       2.55582946      -0.11005587       1.34736331
Fe       2.84360000       1.73250000       3.81271000       2.28004000      -1.18251600      -0.27344700       2.23529922      -0.98861692      -0.20973979
Fe       0.77541000       4.93717000       1.04317000       1.56096300      -3.83372900       1.76362000       1.23176555      -3.38753077       1.59682991
Fe       0.07665000       3.70431000       3.74351000      -0.75952900      -0.39175400      -2.23189700      -1.20102367      -0.47930967      -2.25466191
Fe       4.77171000       3.58949000       4.78220000      -1.99219600      -4.62409700       0.48420500      -1.63322903      -4.51641072       0.37916882
Fe       4.12430000       1.49867000       1.46476000       0.29771700      -2.38794700       0.28396300       0.26094417      -2.66541927       0.10957026
Fe       0.95387000       5.17746000       5.28728000      -0.57085000      -0.50160400      -1.80733600      -0.93750816      -0.66532017      -1.36817600
Fe       1.93602000       3.09888000       2.36598000      -0.08855100       0.43128300      -0.27209000      -0.21970526       0.48037033      -0.62954829
Fe       5.69037000       1.28357000       4.20026000      -0.40866000      -0.49067900       0.18976600      -0.83806185      -0.31844775       0.23246557
Fe       1.94321000       2.86141000       5.39871000      -0.55906500       0.73218900      -1.80086600      -0.45979302       0.67449494      -1.94261944
Fe       4.33122000       5.38124000       5.25469000      -0.73272900       4.56545400       1.52017900      -0.55232225       4.35739143       1.56553572
B        0.37598000       1.64060000       1.21420000      -3.21263000       2.85095800       0.76078000      -2.98583772       2.70299546       0.82617417
B        1.88110000       4.04794000       3.96741000       2.48956600       2.45119300      -0.32261600       2.66821763       2.42846209      -0.27341917
B        3.63878000       0.94242000       5.41981000      -0.01444500       0.67937600       0.95779200       0.12429876       0.81153806       1.09628553
Si       1.19380000       0.26963000       0.19686000       0.54051800       0.24528300      -1.93219100       0.63236426       0.00532237      -1.83171828
Si       4.57825000       3.47658000       1.16117000       0.15934200       1.26766700      -0.81102600       0.18353330       1.50938703      -0.79947059
Si       1.09558000       0.76720000       2.75124000       0.04909300      -1.52033200       1.50719200      -0.05394123      -1.66653679       1.45770305
54
Lattice="8.579999685 0.0 0.0 0.0 8.579999685 0.0 0.0 0.0 8.5799996" Properties=species:S:1:pos:R:3:REF_forces:R:3:MACE_forces:R:3 config_type=Fe34B10Si10 REF_energy=-356.0869274 MACE_energy=-356.95271236715706 pbc="T T T"
Fe       0.92877000       1.08311000       2.12831000      -0.53214900      -1.15432400       0.53007800      -0.72394409      -1.19101792       0.39820648
Fe       1.12794000       0.45096000       7.37327000      -2.86345100       2.18226700       1.45805300      -2.82438125       1.97166600       1.43796153
Fe       0.91289000       3.61082000       1.96264000      -1.66570100       0.50807500      -4.76654600      -1.71897597       0.37342898      -4.80641624
Fe       0.97242000       3.25012000       3.83975000      -0.85629000      -1.23507100      -0.91491200      -1.09535884      -1.24439420      -0.17323676
Fe       1.43574000       3.84332000       5.84621000      -1.94378300      -0.72872400       4.94145300      -2.07864202      -0.63293866       4.72377599
Fe       0.45897000       5.99881000       1.32384000       1.86679900       1.45939200      -0.33976700       1.63506275       1.52198296      -0.17164625
Fe       0.05714000       6.25044000       6.01250000       0.66851500      -0.88142700       1.67028200       0.69107224      -0.76984407       1.71111515
Fe       1.87526000       7.05991000       7.27744000      -5.90957000       6.81146600       5.95768600      -5.74380148       7.23278468       5.99599362
Fe       4.21220000       0.80536000       3.81626000       0.44958900      -1.97725700       0.54591300       0.48039431      -1.89137277       0.42248602
Fe       2.64196000       0.75311000       5.88605000       0.80305000      -0.92688600      -1.50973400       0.51287141      -1.03466241      -1.55627246
Fe       2.51735000       4.27963000       7.86001000      -0.17185400       2.88247300       0.00075600      -0.00240446       2.94183791       0.16934836
Fe       2.46175000       4.76211000       4.38544000       2.27245000       6.36429500      -0.60000700       2.18623664       6.35490080      -0.72082066
Fe       3.99132000       4.46692000       6.09268000      -0.21521200      -1.96607600      -0.25853400      -0.17081013      -2.27289789      -0.20284806
Fe       4.03283000       6.20484000       2.50717000       0.32509400      -1.83048700       1.07686200       0.41505417      -1.76595728       1.07199433
Fe       2.62183000       8.12097000       1.25125000      -5.45108600      -1.04608100      -0.88869000      -5.50864986      -1.13171532      -0.64896662
Fe       2.34208000       7.49949000       3.33705000      -1.45221900       0.10179900       1.96325000      -1.25879818       0.17862339       1.64355208
Fe       4.67554000       0.98699000       8.35162000       1.97529500       0.95938300       0.07305200       1.65933131       0.86352426       0.31102762
Fe       4.68615000       2.28426000       1.60336000       6.03713100       4.39249100       1.56082500       6.25001044       4.32372562       1.15269493
Fe       4.95897000       4.28949000       0.91503000       1.24258400       3.77490300      -1.07876200       0.81119301       3.57140954      -1.24375019
Fe       5.62605000       3.84953000       3.25301000      -4.56775200       3.43217100       2.09526400      -4.53721432       3.55445704       1.89885066
Fe       5.63153000       5.70233000       4.67966000       0.04558900       0.36352900      -0.74034800       0.01517160      -0.04863131      -0.59419070
Fe       5.00954000       6.14620000       6.89198000       4.51113600      -2.60361300       1.43664400       4.57849661      -2.37708075       1.43966755
Fe       5.34723000       7.32984000       0.56425000       3.41130600      -7.55812200      -7.44238600       3.48883117      -7.02876375      -7.24831924
Fe       4.57141000       8.20633000       1.67615000      -2.51651100       6.57056000       9.11650700      -2.69382377       6.05786460       8.70944686
Fe       5.67084000       7.83697000       6.02451000      -0.02983000       3.57151200       0.33120700      -0.04133389       3.61330904       0.33840874
Fe       7.65837000       1.05332000       0.64336000       1.95813700       2.93603900      -3.62028800       1.88589670       2.92048399      -3.55574619
Fe       7.23579000       1.49494000       3.62009000       0.88838800      -1.50203300       3.00240400       0.94375051      -1.49207228       3.08252694
Fe       6.96409000       1.59543000       6.70415000       0.40175100      -2.57633900      -0.54943900       0.52312292      -2.54482183      -0.57908407
Fe       6.97946000       3.05325000       2.27831000       3.01329100      -2.85779700      -7.80747400       2.46652513      -2.95354411      -7.27982198
Fe       7.05854000       3.62734000       7.13255000       0.94483300       2.42104600       2.56329500       1.03872552       2.48624850       2.50581690
Fe       7.47490000       4.49325000       0.92243000      -3.13561000       0.06366500       0.11142200      -2.88843383       0.47896109      -0.18624816
Fe       7.76499000       5.40883000       4.05655000       3.42051700      -2.49950500       1.10150300       3.49079181      -2.65041530       1.11853438
Fe       6.91686000       6.16423000       2.38917000      -4.34160700       0.52717700      -3.24358900      -4.32022427       0.57877955      -3.20726219
Fe       7.31773000       7.39473000       4.73130000      -1.41907300       3.06948200       1.38572900      -1.47821985       2.99969953       1.40536995
B        1.63947000       5.44017000       2.85377000      -1.37965300       1.67099600      -0.34434500      -1.51475724       1.78144946      -0.58401255
B        3.47444000       1.29905000       1.69513000      -6.04542900      -7.46227000      -1.52467000      -5.89511577      -7.14707512      -1.09907498
B        2.31673000       1.42955000       3.77944000      -1.85652800      -2.14982900       3.21956500      -1.69981212      -1.98813118       3.43323398
B        3.17088000       0.01260000       8.16689000      -2.14308300      -0.12737100      -3.63430700      -1.98917496       0.11463676      -3.57818741
B        2.48887000       2.23189000       2.44876000      -1.30373000       3.96631200      -0.94871100      -0.89907199       3.82673177      -1.29422352
B        3.55016000       3.21990000       0.17024000       2.13469500      -3.52588700       0.23974700       2.14179222      -3.42718018       0.30771775
B        3.12966000       3.07291000       4.24572000      -6.99085300       0.34377600      -0.16579100      -7.09782834       0.14380302      -0.16965095
B        2.38358000       5.95301000       6.34325000       2.25901800      -8.76611800      -6.31465800       2.16138138      -9.24622839      -6.58511099
B        4.46260000       2.62992000       4.23823000       7.08507900      -1.75449200       0.40993300       7.18411599      -1.86674062       0.45627720
B        7.51183000       3.59374000       3.85724000       1.49621300      -1.20378300       3.39561400       1.55006422      -1.07695749       3.22568743
Si       0.50050000       1.66927000       5.10425000      -1.02554400      -2.67263500       2.61432900      -0.79001237      -2.91474677       2.62936375
Si       0.41923000       4.50138000       8.15701000       0.82744200      -0.47721100      -2.57541600       1.06784565      -0.40083878      -2.86084054
Si       2.90131000       4.25049000       1.93860000       2.71957100       0.04497600      -0.88170100       2.89690040      -0.01275081      -1.08016439
Si       3.74353000       6.85388000       5.19884000      -1.20766000       1.80214700      -2.20114300      -1.06631319       2.07076642      -2.13706840
Si       3.54209000       6.47938000       8.21357000      -0.45014500      -1.75854100       4.24377300      -0.53902954      -2.00760527       4.43682058
Si       4.55252000       1.74669000       6.40118000       0.28733400       0.20348600      -1.69136000       0.23778642       0.12867466      -1.62197664
Si       5.87020000       3.30923000       5.41310000       1.93974000       0.55942400      -1.14043100       1.56829554       0.79285434      -1.07443401
Si       6.68392000       0.09389000       2.07850000      -2.78148600      -1.30329400       2.70552900      -2.45066713      -1.23805648       2.80946027
Si       7.30980000       7.36953000       0.08595000       4.18267400      -0.22507900      -1.67891000       4.11569970      -0.50632399      -1.67821511
Si       8.41387000       7.50606000       2.97540000       5.08859000       1.78741200      -0.88875800       5.03037907       1.98016100      -0.89774979
54
Lattice="8.579999685 0.0 0.0 0.0 8.579999685 0.0 0.0 0.0 8.5799996" Properties=species:S:1:pos:R:3:REF_forces:R:3:MACE_forces:R:3 config_type=Fe34B10Si10 REF_energy=-359.84864784 MACE_energy=-360.24970871333477 pbc="T T T"
Fe       0.39531000       2.37288000       0.87042000       3.27925500       2.43832800      -1.60261100       3.21153969       2.70027266      -1.76263872
Fe       0.75383000       1.65209000       3.11094000       1.30783500      -0.34615400      -0.09267000       1.28409283      -0.87329252       0.11496238
Fe       1.33201000       3.79282000       7.26231000      -2.40668100      -1.18131200       0.32245500      -2.58508462      -1.11201366       0.26337470
Fe       0.64436000       4.41396000       2.97573000       2.42004200      -2.26182600       0.38963900       2.49459322      -2.09125578       0.30222654
Fe       0.14751000       6.42079000       3.51005000      -3.07002100       1.32407200      -2.30638400      -3.08264868       1.29554950      -2.41499826