54
Lattice="8.579999685 0.0 0.0 0.0 8.579999685 0.0 0.0 0.0 8.5799996" Properties=species:S:1:pos:R:3:REF_forces:R:3:MACE_forces:R:3 config_type=Fe34B10Si10 REF_energy=-352.89092233 MACE_energy=-353.3145680853537 pbc="T T T"
Fe       1.46495000       0.71583000       1.12880000       3.73230100      -3.41607500      -3.76209700       3.67795708      -3.52356514      -3.54325881
Fe       0.56244000       2.07917000       1.96452000      -3.31290700       4.06628900       2.54508600      -3.22081452       3.97326294       2.35433681
Fe       0.86636000       2.12990000       5.00906000     -10.85567700      -2.87102900      12.20968700     -10.94331340      -2.95101764      12.21834759
Fe       0.24697000       2.61233000       7.83061000      -0.37811800      -2.03816900      -0.08744800      -0.40966827      -1.89786941       0.08483152
Fe       0.35437000       4.66395000       8.16447000      -1.30300600       1.62250000       0.84662400      -1.33759657       1.60469473       0.77313678
Fe       0.83543000       8.00840000       3.01492000       5.54921000      -2.55787300       0.52513800       5.70682986      -2.53548901       0.38317465
Fe       2.03952000       7.84431000       6.63062000      -4.28706100       1.82495200      -1.68802900      -4.07299353       1.95980464      -1.64399828
Fe       3.34318000       0.11090000       2.96052000      -0.46571400      -0.35056300       0.37864800      -0.52447313      -0.22883669       0.46599604
Fe       3.26317000       2.11539000       1.48699000      -3.47884800      -0.03222100       0.61542300      -3.40881700      -0.29220853       0.17795130
Fe       4.14313000       2.75755000       3.31065000      -0.71378000      -2.73118300       1.93004800      -0.61514707      -2.38984351       1.85330876
Fe       2.55051000       2.67374000       7.19710000      -2.55215900      -0.93589000       1.77261600      -2.30992149      -1.14440916       1.71147460
Fe       3.61327000       2.86500000       5.46497000       1.55763200       0.20514300      -0.56676300       1.46057964       0.27341603      -0.27567338
Fe       2.62400000       4.72550000       1.39174000      -1.08585200      -1.19598700       0.59645400      -1.35045972      -1.01886852       0.69497821
Fe       2.20317000       5.21693000       3.87451000      -3.92870900      -4.38103900      -4.92199500      -3.86028081      -4.40030223      -4.98327232
Fe       3.93082000       4.37819000       8.08226000       1.07616800       0.44807800      -0.99700400       1.02844447       0.29777177      -0.92526566
Fe       2.44961000       7.01753000       1.08943000       0.32119000      -1.55635000       3.27006500       0.45036295      -1.63047214       3.26369843
Fe       3.02500000       6.15780000       5.08193000      -1.08486800       1.64126100       3.95415400      -0.64078637       1.65709400       4.06206977
Fe       5.77712000       0.44616000       0.16142000      -2.43333700       0.07175000       4.13474700      -2.47488761       0.40613169       4.21226497
Fe       5.66964000       0.14892000       2.95259000      -3.67617900       1.90971100       0.12919700      -3.63719964       1.63995944       0.32093295
Fe       5.39484000       2.66317000       1.55162000       4.08183700      -3.39937100       3.88213200       4.02299477      -3.64185701       4.03446380
Fe       5.91309000       3.40423000       8.31953000       8.90196200       5.48305700      -2.72562400       8.71832427       5.46669280      -2.71033809
Fe       4.96126000       4.63305000       3.41410000      -3.60269200      -2.00302700       2.25051900      -3.73898072      -2.21382716       2.36396472
Fe       5.11347000       6.81217000       1.78872000      -0.87770500       0.06714300      -1.61156800      -0.70511924       0.07985824      -1.55872614
Fe       5.00950000       6.45991000       8.24507000      -2.30619500      -0.19808200      -1.52355700      -2.26854990       0.02238406      -1.67612575
Fe       4.64263000       7.71190000       5.75084000       2.50156800       4.23919200      -1.55456800       2.61546758       4.26200289      -1.58696712
Fe       7.32285000       0.33022000       5.03535000      -0.99210900      -0.59745100       4.73628300      -1.02609837      -0.38565569       4.80931303
Fe       6.75330000       1.32958000       7.05071000       0.53851300       2.01290400       0.36400700       0.56588008       1.82433050       0.27803796
Fe       6.82686000       2.53028000       3.66692000      -0.08907100      -0.12987400      -0.26318300      -0.06347800      -0.21414239      -0.23778596
Fe       6.83617000       5.56618000       0.59386000       1.74434500       1.47371700      -3.32847200       1.81044661       1.62445749      -3.40658048
Fe       8.27091000       4.29855000       2.87718000       3.23308900       0.33980500       1.37352500       3.20965705       0.23764723       1.33277997
Fe       6.58774000       4.90718000       4.97515000      -1.87594500       0.58060600      -0.05143700      -2.12021747       0.60473551      -0.28725038
Fe       6.86773000       6.79187000       3.27473000       1.52763600      -2.76254700       0.67579100       1.39024552      -2.41470161       0.39540619
Fe       8.09083000       8.29691000       0.84396000      -4.18921500      -1.95965200       9.56442300      -4.19681296      -2.32427107       9.67582487
Fe       6.62133000       7.67903000       7.47205000      -3.65417600       1.51975600      -3.32990400      -3.89795577       1.24943727      -3.51585965
B        3.45077000       6.81738000       6.75435000       2.04131500      -2.79808300       3.80923700       1.91926811      -2.70388955       3.92796534
B        4.67436000       1.10514000       4.73414000       0.75036200       0.95391600      -0.52852700       0.82177947       0.86978767      -0.46200763
B        6.18153000       2.20088000       5.47737000      -4.49435700      -3.20609500      -2.27763700      -4.70175154      -3.14501663      -2.46315785
B        5.08133000       4.10197000       6.35983000       0.35152900       0.25548900      -0.65354500       0.57686987       0.33915332      -0.64541146
B        4.48663000       4.29393000       1.40792000      -0.27448100       1.04603100       0.21283300      -0.26270650       1.21546796       0.16965843
B        4.96286000       5.88068000       6.14703000       0.60492000      -1.85032800       0.29314600       0.63641151      -1.92740180       0.12720302
B        8.17242000       5.65216000       5.55863000       1.00443800       0.65677900      -0.69824300       1.01459927       0.74258469      -0.32564163
B        7.98743000       6.92663000       6.60530000       5.86774900       2.58695800      -4.05103700       5.84617019       2.50943433      -3.74953617
B        7.10769000       5.72812000       6.91109000      -2.33709700      -3.34606800       1.34633400      -2.32671471      -3.53284039       1.28978133
B        7.81665000       6.81498000       8.33858000       5.04350100      -2.41043400       0.97359300       5.16709039      -2.42645236       0.75397745
Si       0.06983000       0.14925000       7.74742000       4.12649000       2.60901100      -8.87608100       3.95069948       2.63527997      -8.85812228
Si       1.93337000       2.41223000       3.74634000      10.14534600       2.98113100     -12.18526000      10.23202636       3.10656138     -12.01635704
Si       0.75978000       6.02813000       1.69309000      -4.13401100      -0.74920300       1.02787300      -4.13656618      -0.87230596       1.03619960
Si       2.22023000       5.10313000       7.16329000      -1.58663400       1.19675500      -1.89967800      -1.77978157       1.17791107      -1.93631530
Si       3.27754000       8.17117000       8.35443000       4.04667900       4.58101600      -2.24829100       3.90236511       4.54216967      -2.46917370
Si       4.48145000       2.18337000       8.34202000      -5.72220500      -5.96162700      -4.99603400      -5.48360400      -5.82078419      -5.14935178
Si       6.36439000       4.54151000       2.12641000       2.28764700      -2.33178900       1.39384200       2.59299126      -2.23816392       1.25568735
Si       4.52267000       6.51460000       3.75633000       0.42177200       5.22743800       1.25328700       0.16434208       5.38506550       1.40077139
Si       7.68278000       0.22257000       3.11016000      -0.17295300       4.89916800      -3.86478000      -0.31253936       4.76510839      -3.98400743
Si       7.35363000       3.38410000       6.13231000       4.40786200       1.27045000       2.62604800       4.34543244       1.40198654       2.98264747
54
Lattice="8.579999685 0.0 0.0 0.0 8.579999685 0.0 0.0 0.0 8.5799996" Properties=species:S:1:pos:R:3:REF_forces:R:3:MACE_forces:R:3 config_type=Fe34B10Si10 REF_energy=-354.71875992 MACE_energy=-355.3661993630625 pbc="T T T"
Fe       0.43313000       1.19321000       2.96848000       1.47291300       2.99028000       0.61180900       1.61379809       2.98182632       0.31137782
Fe       0.91365000       1.12516000       8.09995000       2.76260400      -2.00335600       1.20968300       2.58361461      -2.15195301       1.12423060
Fe       1.17142000       2.67870000       5.23446000      -1.90323000       6.04651700       0.58026800      -1.67959126       6.29475483       0.61148074
Fe       0.60772000       3.85484000       0.87278000       2.66909500       4.89444800       4.53699300       2.67044488       5.09427848       4.24863160
Fe       1.41565000       3.44858000       3.01161000      -0.29549500       2.03729500      -0.74017400      -0.29065411       1.93063014      -0.67629434
Fe       0.04226000       2.91249000       8.09734000      -3.39897200      -2.84207300      -2.69442200      -3.12008223      -2.74845403      -2.50281147
Fe       1.33282000       7.09057000       5.22634000      -0.45239700      -1.35392500       0.92503500      -0.21000587      -1.50619985       0.81711419
Fe       2.06045000       7.92051000       0.98063000      -3.11321000      -0.30108300      -2.49280600      -3.24529194      -0.53538506      -2.32468419
Fe       2.03627000       8.24295000       3.50701000      -1.42216600       4.38122900       0.88517600      -1.51754238       4.19364907       0.54901475
Fe       0.01253000       8.02686000       7.00667000       2.58679700       0.98610200     -11.80201700       2.50430405       0.83257966     -11.94900786
Fe       3.00353000       0.57289000       6.13981000      -1.03922300       0.18357300       0.93137300      -0.71025275      -0.02483935       1.08454721
Fe       3.69949000       2.65196000       7.51811000       2.76433000      -4.34399200      -3.80269000       2.57475618      -4.15092550      -3.67445501
Fe       2.94478000       6.44154000       3.03987000       7.21319500      -3.66655800      -1.17614100       7.11526554      -3.34462699      -0.91413672
Fe       2.94309000       5.75189000       6.64956000      -6.24071800      -0.74678300       3.86021800      -6.58693152      -0.76227657       3.87440488
Fe       3.71160000       8.39321000       1.86324000       2.24845700      -0.43546600       0.28887200       2.36076433      -0.24821141       0.54193970
Fe       4.07810000       8.43915000       4.32840000       2.88035800       1.28304800      -0.49181300       2.94013164       1.48515916      -0.80940873
Fe       5.57499000       0.73262000       6.31633000      -3.12774100      -1.68249800      -0.98058200      -2.97572860      -1.74078251      -1.02658256
Fe       4.70712000       1.94493000       1.65492000      -2.04675700       4.97917500      -3.67899600      -2.15100434       4.81769319      -3.39193946
Fe       4.73401000       4.18392000       1.24748000       0.71501700       1.80608500      -0.06999200       0.70714731       1.99902760      -0.15622085
Fe       4.56687000       4.22266000       4.39618000       0.73801700       3.32591500      -2.10569900       0.60300167       3.48062063      -2.31255604
Fe       4.51224000       4.61167000       7.05684000       2.53211900      -0.41024200       0.53825400       2.98257474      -0.68967357       0.64675895
Fe       6.32808000       6.81945000       4.24288000      -3.20445400      -0.33519400      -1.28892300      -2.85553507      -0.30068465      -1.08066349
Fe       6.22240000       7.17309000       0.16230000      -3.30904600      -2.75215800       1.90373500      -3.55639357      -2.98217791       1.91812312
Fe       4.54224000       7.44382000       7.03838000       0.17895600      -5.02037800      -8.74618400       0.16081072      -5.28792375      -8.85032608
Fe       4.73272000       8.55832000       8.35561000      -0.10588400       8.96287400       6.54083400      -0.24790253       9.46349794       6.39486956
Fe       7.67285000       2.82429000       2.17742000      -2.12886900      -0.76272600      -2.06587500      -2.12001156      -0.71761634      -1.92989760
Fe       6.74071000       1.77406000       4.33655000       0.47479500       0.50025500      -0.42349800       0.14387705       0.52875371      -0.55600227
Fe       7.16362000       1.61896000       6.68131000       5.11373900       1.83737400       0.70818800       4.95058809       1.66452531       0.64247975
Fe       6.73653000       4.13840000       7.84564000       0.19062300       0.32905600       3.59274800       0.35113885       0.46169307       3.67959393
Fe       6.61248000       5.35948000       2.44590000       0.96755600      -0.77403900      -0.47053600       0.91180756      -0.76762014      -0.39413258
Fe       8.39074000       4.95678000       4.82580000       0.50677700       3.21370700       1.22596300       0.55690141       3.15299069       1.09387732
Fe       6.62275000       6.29700000       6.29237000       0.91106900      -0.58785400       1.74696000       0.85516374      -0.46433527       1.52467483
Fe       8.00875000       8.14674000       2.12563000      -1.25903800      -1.94608200      -3.37077000      -0.86160240      -1.95962464      -3.54561563
Fe       7.96861000       8.10559000       4.08816000       1.24434400       0.03207600       4.40361200       0.68829619      -0.04124218       4.63685080
B        3.14587000       1.61638000       2.59818000      -3.96044800      -1.57388800      -2.24367700      -4.10098483      -1.55102575      -2.21631290
B        4.07212000       1.93087000       3.78701000       0.55534200       0.12762300      -3.25123200       0.40942258      -0.03213720      -3.38025554
B        2.24412000       1.90783000       4.05913000      -1.80380000      -9.70850100      -5.48536600      -1.84036601      -9.88299246      -5.58457645
B        2.90130000       3.06657000       4.45062000       2.48509300       7.60479000      -1.50334300       2.77893499       7.06989514      -1.35576940
B        2.82587000       3.80138000       5.80651000       0.21675600       2.27927400       3.92227300       0.28105901       2.13768608       3.96000982
B        2.60929000       5.04297000       1.66311000       0.12617300      -0.77075900      -0.46531300      -0.03627803      -0.94575273      -0.48644823
B        2.47198000       4.95014000       4.32601000      -0.76752800      -1.31946700       0.35153300      -0.91911414      -1.13045045       0.34135086
B        2.73354000       7.81887000       7.66829000      -1.47869400      -0.15377200       0.00458000      -1.41904976      -0.13003003       0.10104464
B        5.68071000       2.28134000       7.79544000      -0.95924500       0.41857400       1.11780500      -1.05769723       0.37740322       1.11623207
B        7.77536000       3.70665000       3.76574000      -0.44877700      -1.48394500      -0.38974400      -0.49876740      -1.38446790      -0.18060265
Si       0.79518000       0.92195000       5.77957000      -1.66645900      -4.94136200      -1.10925300      -1.64315107      -5.09453097      -0.91451386
Si       0.88055000       4.20706000       6.73551000       1.15626000       3.58432200      -0.32349000       1.12552751       3.70703525      -0.28118402
Si       1.15025000       6.44729000       2.43826000      -7.77651300      -1.83655100      -1.54918700      -7.82679327      -1.65156403      -1.74816200
Si       2.82820000       3.29548000       0.50208000      -4.05499500       1.58525200       5.32597100      -4.12987395       1.39893265       5.16672950
Si       4.14031000       6.38272000       0.30005000      -2.16949800      -2.44928300       2.57761000      -2.30582061      -2.38584722       2.44256302
Si       3.68345000       6.43010000       5.01209000       3.98893100       0.98565200      -2.13453700       3.91636034       1.18947904      -2.02981078
Si       5.73751000       0.59059000       2.53265000       5.08228400      -4.90021500       2.23852200       5.19592244      -4.99833141       2.53848060
Si       4.51163000       2.47994000       5.36819000       2.60737700      -2.86786400       7.12589500       2.72267879      -2.58838175       7.30497464
Si       6.43436000       3.75222000       5.86206000       1.38008400       0.66155200      -3.64612400       1.49179746       0.68470441      -3.78164495
Si       8.06432000       7.52318000       8.55473000       2.36409700      -3.06603600      11.34847700       2.71033665      -2.74675094      11.38266076
18
Lattice="6.5 0.0 0.0 0.0 6.5 0.0 0.0 0.0 6.5" Properties=species:S:1:pos:R:3:REF_forces:R:3:MACE_forces:R:3 config_type=Fe12B3Si3 REF_energy=-113.87843945 MACE_energy=-112.48418289068329 pbc="T T T"
Fe       5.40234000       5.43492000       1.53729000      -1.39532100       2.04028400       0.71142300      -1.15938921       2.05171240       0.78629399
Fe       2.09750000       2.10361000       0.54730000       2.35673700      -0.33103000       1.27254800       2.74941090      -0.24095559       1.35341543
Fe       2.84360000       1.73250000       3.81271000       2.28004000      -1.18251600      -0.27344700       2.26104174      -1.10125552      -0.32231818
Fe       0.77541000       4.93717000       1.04317000       1.56096300      -3.83372900       1.76362000       1.54697764      -3.67872219       1.57462654
Fe       0.07665000       3.70431000       3.74351000      -0.75952900      -0.39175400      -2.23189700      -0.85776234      -0.47168884      -2.37661883
Fe       4.77171000       3.58949000       4.78220000      -1.99219600      -4.62409700       0.48420500      -1.81779842      -4.55107373       0.45331904
Fe       4.12430000       1.49867000       1.46476000       0.29771700      -2.38794700       0.28396300       0.37081616      -2.68690205       0.15102719
Fe       0.95387000       5.17746000       5.28728000      -0.57085000      -0.50160400      -1.80733600      -0.81766267      -0.67137787      -1.37745273
Fe       1.93602000       3.09888000       2.36598000      -0.08855100       0.43128300      -0.27209000      -0.24405340       0.58688689      -0.37126585
Fe       5.69037000       1.28357000       4.20026000      -0.40866000      -0.49067900       0.18976600      -0.67615159      -0.36620534       0.24187161
Fe       1.94321000       2.86141000       5.39871000      -0.55906500       0.73218900      -1.80086600      -0.70474369       1.15396788      -2.20680753
Fe       4.33122000       5.38124000       5.25469000      -0.73272900       4.56545400       1.52017900      -0.61837080       4.50604258       1.59360748
B        0.37598000       1.64060000       1.21420000      -3.21263000       2.85095800       0.76078000      -3.22208627       2.74924989       1.04889575
B        1.88110000       4.04794000       3.96741000       2.48956600       2.45119300      -0.32261600       2.51034491       2.22717005      -0.26057132
B        3.63878000       0.94242000       5.41981000      -0.01444500       0.67937600       0.95779200       0.01764604       0.78836364       1.08429309
Si       1.19380000       0.26963000       0.19686000       0.54051800       0.24528300      -1.93219100       0.59157553      -0.01509622      -1.88710479
Si       4.57825000       3.47658000       1.16117000       0.15934200       1.26766700      -0.81102600       0.20663398       1.34620066      -0.75783364
Si       1.09558000       0.76720000       2.75124000       0.04909300      -1.52033200       1.50719200      -0.13642850      -1.62631663       1.27262276
54
Lattice="8.579999685 0.0 0.0 0.0 8.579999685 0.0 0.0 0.0 8.5799996" Properties=species:S:1:pos:R:3:REF_forces:R:3:MACE_forces:R:3 config_type=Fe34B10Si10 REF_energy=-356.0869274 MACE_energy=-357.1044638135583 pbc="T T T"
Fe       0.92877000       1.08311000       2.12831000      -0.53214900      -1.15432400       0.53007800      -0.62134623      -1.15443046       0.47118921
Fe       1.12794000       0.45096000       7.37327000      -2.86345100       2.18226700       1.45805300      -2.74293169       2.08740229       1.42088159
Fe       0.91289000       3.61082000       1.96264000      -1.66570100       0.50807500      -4.76654600      -1.58647153       0.10190323      -4.47909724
Fe       0.97242000       3.25012000       3.83975000      -0.85629000      -1.23507100      -0.91491200      -1.09649361      -1.06060458      -0.64190242
Fe       1.43574000       3.84332000       5.84621000      -1.94378300      -0.72872400       4.94145300      -2.05222259      -0.52898646       4.72008736
Fe       0.45897000       5.99881000       1.32384000       1.86679900       1.45939200      -0.33976700       1.67356818       1.45717921      -0.16507438
Fe       0.05714000       6.25044000       6.01250000       0.66851500      -0.88142700       1.67028200       0.61479544      -0.75533539       1.72981722
Fe       1.87526000       7.05991000       7.27744000      -5.90957000       6.81146600       5.95768600      -5.62166639       6.97943535       5.78670875
Fe       4.21220000       0.80536000       3.81626000       0.44958900      -1.97725700       0.54591300       0.53597608      -1.80713450       0.45561666
Fe       2.64196000       0.75311000       5.88605000       0.80305000      -0.92688600      -1.50973400       0.50591617      -1.08981912      -1.52950650
Fe       2.51735000       4.27963000       7.86001000      -0.17185400       2.88247300       0.00075600      -0.18874278       3.06293113       0.06809207
Fe       2.46175000       4.76211000       4.38544000       2.27245000       6.36429500      -0.60000700       2.28571416       6.36869414      -0.47284397
Fe       3.99132000       4.46692000       6.09268000      -0.21521200      -1.96607600      -0.25853400      -0.32873957      -2.19062205      -0.13237625
Fe       4.03283000       6.20484000       2.50717000       0.32509400      -1.83048700       1.07686200       0.35486742      -1.78630435       1.11268463
Fe       2.62183000       8.12097000       1.25125000      -5.45108600      -1.04608100      -0.88869000      -5.59595187      -1.10194163      -0.67314925
Fe       2.34208000       7.49949000       3.33705000      -1.45221900       0.10179900       1.96325000      -1.30227016       0.10384299       1.58250488
Fe       4.67554000       0.98699000       8.35162000       1.97529500       0.95938300       0.07305200       1.70524064       0.85317365       0.33031535
Fe       4.68615000       2.28426000       1.60336000       6.03713100       4.39249100       1.56082500       6.16026866       4.36361885       1.11487407
Fe       4.95897000       4.28949000       0.91503000       1.24258400       3.77490300      -1.07876200       0.79716914       3.54311536      -1.17161029
Fe       5.62605000       3.84953000       3.25301000      -4.56775200       3.43217100       2.09526400      -4.71454793       3.43619966       1.93661968
Fe       5.63153000       5.70233000       4.67966000       0.04558900       0.36352900      -0.74034800       0.12191878      -0.05425944      -0.59489875
Fe       5.00954000       6.14620000       6.89198000       4.51113600      -2.60361300       1.43664400       4.56980812      -2.57629370       1.28448647
Fe       5.34723000       7.32984000       0.56425000       3.41130600      -7.55812200      -7.44238600       3.21017114      -7.14822305      -7.10542545
Fe       4.57141000       8.20633000       1.67615000      -2.51651100       6.57056000       9.11650700      -2.29169516       6.20604926       8.82006358
Fe       5.67084000       7.83697000       6.02451000      -0.02983000       3.57151200       0.33120700      -0.05100535       3.68344342       0.46176184
Fe       7.65837000       1.05332000       0.64336000       1.95813700       2.93603900      -3.62028800       1.78975908       2.80763406      -3.40711376
Fe       7.23579000       1.49494000       3.62009000       0.88838800      -1.50203300       3.00240400       1.07070796      -1.50155932       3.00321816
Fe       6.96409000       1.59543000       6.70415000       0.40175100      -2.57633900      -0.54943900       0.44109365      -2.38666654      -0.47268420
Fe       6.97946000       3.05325000       2.27831000       3.01329100      -2.85779700      -7.80747400       2.64441328      -2.88488209      -7.43080805
Fe       7.05854000       3.62734000       7.13255000       0.94483300       2.42104600       2.56329500       0.99971845       2.27720296       2.35855261
Fe       7.47490000       4.49325000       0.92243000      -3.13561000       0.06366500       0.11142200      -2.80722496       0.40955113      -0.13040142
Fe       7.76499000       5.40883000       4.05655000       3.42051700      -2.49950500       1.10150300       3.63092402      -2.66890724       1.14932538
Fe       6.91686000       6.16423000       2.38917000      -4.34160700       0.52717700      -3.24358900      -4.37761444       0.87008846      -3.25425550
Fe       7.31773000       7.39473000       4.73130000      -1.41907300       3.06948200       1.38572900      -1.45915323       2.97865298       1.32825075
B        1.63947000       5.44017000       2.85377000      -1.37965300       1.67099600      -0.34434500      -1.42089664       1.76257147      -0.52412933
B        3.47444000       1.29905000       1.69513000      -6.04542900      -7.46227000      -1.52467000      -6.13409323      -6.98355688      -1.29575564
B        2.31673000       1.42955000       3.77944000      -1.85652800      -2.14982900       3.21956500      -1.84696053      -1.94008924       3.28685203
B        3.17088000       0.01260000       8.16689000      -2.14308300      -0.12737100      -3.63430700      -2.08861093       0.13488779      -3.46692178
B        2.48887000       2.23189000       2.44876000      -1.30373000       3.96631200      -0.94871100      -0.91749322       3.67897389      -1.23344698
B        3.55016000       3.21990000       0.17024000       2.13469500      -3.52588700       0.23974700       2.16624379      -3.60122341       0.38519054
B        3.12966000       3.07291000       4.24572000      -6.99085300       0.34377600      -0.16579100      -6.82832545       0.10024763      -0.16993721
B        2.38358000       5.95301000       6.34325000       2.25901800      -8.76611800      -6.31465800       2.11962818      -9.06677057      -6.43796437
B        4.46260000       2.62992000       4.23823000       7.08507900      -1.75449200       0.40993300       6.94075228      -1.82469131       0.36305985
B        7.51183000       3.59374000       3.85724000       1.49621300      -1.20378300       3.39561400       1.49433962      -1.00587392       3.23252185
Si       0.50050000       1.66927000       5.10425000      -1.02554400      -2.67263500       2.61432900      -0.78508173      -2.97657899       2.54767833
Si       0.41923000       4.50138000       8.15701000       0.82744200      -0.47721100      -2.57541600       1.11462718      -0.44083709      -2.75935469
Si       2.90131000       4.25049000       1.93860000       2.71957100       0.04497600      -0.88170100       2.69086855       0.00034437      -1.01773627
Si       3.74353000       6.85388000       5.19884000      -1.20766000       1.80214700      -2.20114300      -1.08053283       1.94263967      -2.06774902
Si       3.54209000       6.47938000       8.21357000      -0.45014500      -1.75854100       4.24377300      -0.57521066      -2.01286928       4.41612005
Si       4.55252000       1.74669000       6.40118000       0.28733400       0.20348600      -1.69136000       0.29079335       0.23574020      -1.66273635
Si       5.87020000       3.30923000       5.41310000       1.93974000       0.55942400      -1.14043100       1.68802810       0.82110727      -1.25898794
Si       6.68392000       0.09389000       2.07850000      -2.78148600      -1.30329400       2.70552900      -2.56743794      -1.24107504       2.85874695
Si       7.30980000       7.36953000       0.08595000       4.18267400      -0.22507900      -1.67891000       4.43530802      -0.37130055      -1.75518089
Si       8.41387000       7.50606000       2.97540000       5.08859000       1.78741200      -0.88875800       5.03010121       1.89420583      -0.91417201
54
Lattice="8.579999685 0.0 0.0 0.0 8.579999685 0.0 0.0 0.0 8.5799996" Properties=species:S:1:pos:R:3:REF_forces:R:3:MACE_forces:R:3 config_type=Fe34B10Si10 REF_energy=-359.84864784 MACE_energy=-360.4356606935943 pbc="T T T"
Fe       0.39531000       2.37288000       0.87042000       3.27925500       2.43832800      -1.60261100       3.18135626       2.60931140      -1.70105979
Fe       0.75383000       1.65209000       3.11094000       1.30783500      -0.34615400      -0.09267000       1.38194770      -0.68919273       0.04508227
Fe       1.33201000       3.79282000       7.26231000      -2.40668100      -1.18131200       0.32245500      -2.54365518      -1.18375876       0.20392206
Fe       0.64436000       4.41396000       2.97573000       2.42004200      -2.26182600       0.38963900       2.46096316      -2.06162986       0.21609963
Fe       0.14751000       6.42079000       3.51005000      -3.07002100       1.32407200      -2.30638400      -3.18214000       1.33199083      -2.48875645