54
Lattice="8.579999685 0.0 0.0 0.0 8.579999685 0.0 0.0 0.0 8.5799996" Properties=species:S:1:pos:R:3:REF_forces:R:3:MACE_forces:R:3 config_type=Fe34B10Si10 REF_energy=-352.89092233 MACE_energy=-353.1585173605822 pbc="T T T"
Fe       1.46495000       0.71583000       1.12880000       3.73230100      -3.41607500      -3.76209700       3.68162550      -3.48282248      -3.55144461
Fe       0.56244000       2.07917000       1.96452000      -3.31290700       4.06628900       2.54508600      -3.25284162       3.96911935       2.32498993
Fe       0.86636000       2.12990000       5.00906000     -10.85567700      -2.87102900      12.20968700     -10.91549992      -2.95873243      12.21586683
Fe       0.24697000       2.61233000       7.83061000      -0.37811800      -2.03816900      -0.08744800      -0.40118566      -1.90724853       0.07266089
Fe       0.35437000       4.66395000       8.16447000      -1.30300600       1.62250000       0.84662400      -1.34660499       1.63898130       0.79416014
Fe       0.83543000       8.00840000       3.01492000       5.54921000      -2.55787300       0.52513800       5.71932740      -2.54792422       0.40738848
Fe       2.03952000       7.84431000       6.63062000      -4.28706100       1.82495200      -1.68802900      -4.09550009       1.97960598      -1.63477583
Fe       3.34318000       0.11090000       2.96052000      -0.46571400      -0.35056300       0.37864800      -0.50489777      -0.23174279       0.47272229
Fe       3.26317000       2.11539000       1.48699000      -3.47884800      -0.03222100       0.61542300      -3.38895902      -0.29398754       0.19565243
Fe       4.14313000       2.75755000       3.31065000      -0.71378000      -2.73118300       1.93004800      -0.62954815      -2.41979854       1.89290837
Fe       2.55051000       2.67374000       7.19710000      -2.55215900      -0.93589000       1.77261600      -2.31152237      -1.12420935       1.71132161
Fe       3.61327000       2.86500000       5.46497000       1.55763200       0.20514300      -0.56676300       1.47951271       0.28189611      -0.30861038
Fe       2.62400000       4.72550000       1.39174000      -1.08585200      -1.19598700       0.59645400      -1.35947057      -0.98595635       0.69391548
Fe       2.20317000       5.21693000       3.87451000      -3.92870900      -4.38103900      -4.92199500      -3.88105571      -4.37398117      -4.99611206
Fe       3.93082000       4.37819000       8.08226000       1.07616800       0.44807800      -0.99700400       1.00341342       0.29585989      -0.94761607
Fe       2.44961000       7.01753000       1.08943000       0.32119000      -1.55635000       3.27006500       0.42392322      -1.61122538       3.28046479
Fe       3.02500000       6.15780000       5.08193000      -1.08486800       1.64126100       3.95415400      -0.59153009       1.66219196       4.07973515
Fe       5.77712000       0.44616000       0.16142000      -2.43333700       0.07175000       4.13474700      -2.47300123       0.42231216       4.21580387
Fe       5.66964000       0.14892000       2.95259000      -3.67617900       1.90971100       0.12919700      -3.68950211       1.62658147       0.31736924
Fe       5.39484000       2.66317000       1.55162000       4.08183700      -3.39937100       3.88213200       4.06286284      -3.66039107       4.05191708
Fe       5.91309000       3.40423000       8.31953000       8.90196200       5.48305700      -2.72562400       8.69319635       5.43601981      -2.67107534
Fe       4.96126000       4.63305000       3.41410000      -3.60269200      -2.00302700       2.25051900      -3.73461701      -2.21655005       2.40570714
Fe       5.11347000       6.81217000       1.78872000      -0.87770500       0.06714300      -1.61156800      -0.69542973       0.06848451      -1.58256092
Fe       5.00950000       6.45991000       8.24507000      -2.30619500      -0.19808200      -1.52355700      -2.28924496       0.01202805      -1.69525338
Fe       4.64263000       7.71190000       5.75084000       2.50156800       4.23919200      -1.55456800       2.59113400       4.31515354      -1.60151087
Fe       7.32285000       0.33022000       5.03535000      -0.99210900      -0.59745100       4.73628300      -1.02326299      -0.36327238       4.80549878
Fe       6.75330000       1.32958000       7.05071000       0.53851300       2.01290400       0.36400700       0.55401411       1.82523696       0.31162448
Fe       6.82686000       2.53028000       3.66692000      -0.08907100      -0.12987400      -0.26318300      -0.04157749      -0.19942643      -0.25741026
Fe       6.83617000       5.56618000       0.59386000       1.74434500       1.47371700      -3.32847200       1.82062539       1.64411813      -3.46947563
Fe       8.27091000       4.29855000       2.87718000       3.23308900       0.33980500       1.37352500       3.20407814       0.19600390       1.31463656
Fe       6.58774000       4.90718000       4.97515000      -1.87594500       0.58060600      -0.05143700      -2.12353962       0.64154087      -0.36053859
Fe       6.86773000       6.79187000       3.27473000       1.52763600      -2.76254700       0.67579100       1.37453513      -2.43031933       0.37085780
Fe       8.09083000       8.29691000       0.84396000      -4.18921500      -1.95965200       9.56442300      -4.15052925      -2.30719760       9.68805950
Fe       6.62133000       7.67903000       7.47205000      -3.65417600       1.51975600      -3.32990400      -3.92950420       1.24688707      -3.50806554
B        3.45077000       6.81738000       6.75435000       2.04131500      -2.79808300       3.80923700       1.94171710      -2.74823307       3.96102464
B        4.67436000       1.10514000       4.73414000       0.75036200       0.95391600      -0.52852700       0.82727457       0.88301567      -0.45793051
B        6.18153000       2.20088000       5.47737000      -4.49435700      -3.20609500      -2.27763700      -4.72602205      -3.15367305      -2.49371972
B        5.08133000       4.10197000       6.35983000       0.35152900       0.25548900      -0.65354500       0.56260771       0.33303060      -0.60284388
B        4.48663000       4.29393000       1.40792000      -0.27448100       1.04603100       0.21283300      -0.26714099       1.22655247       0.16223265
B        4.96286000       5.88068000       6.14703000       0.60492000      -1.85032800       0.29314600       0.60000159      -1.94042617       0.14662670
B        8.17242000       5.65216000       5.55863000       1.00443800       0.65677900      -0.69824300       1.03955378       0.69547985      -0.32088190
B        7.98743000       6.92663000       6.60530000       5.86774900       2.58695800      -4.05103700       5.85117961       2.46304418      -3.71987829
B        7.10769000       5.72812000       6.91109000      -2.33709700      -3.34606800       1.34633400      -2.29055151      -3.50428563       1.35219088
B        7.81665000       6.81498000       8.33858000       5.04350100      -2.41043400       0.97359300       5.14718459      -2.44077702       0.71704693
Si       0.06983000       0.14925000       7.74742000       4.12649000       2.60901100      -8.87608100       3.96514455       2.64112172      -8.87237514
Si       1.93337000       2.41223000       3.74634000      10.14534600       2.98113100     -12.18526000      10.23447420       3.10169795     -12.01892285
Si       0.75978000       6.02813000       1.69309000      -4.13401100      -0.74920300       1.02787300      -4.12633881      -0.87622783       1.01408011
Si       2.22023000       5.10313000       7.16329000      -1.58663400       1.19675500      -1.89967800      -1.78092797       1.14453298      -1.93807386
Si       3.27754000       8.17117000       8.35443000       4.04667900       4.58101600      -2.24829100       3.90274585       4.54374865      -2.45473027
Si       4.48145000       2.18337000       8.34202000      -5.72220500      -5.96162700      -4.99603400      -5.49951511      -5.82401264      -5.18100373
Si       6.36439000       4.54151000       2.12641000       2.28764700      -2.33178900       1.39384200       2.57812536      -2.23278526       1.27829371
Si       4.52267000       6.51460000       3.75633000       0.42177200       5.22743800       1.25328700       0.15002335       5.35713070       1.37556645
Si       7.68278000       0.22257000       3.11016000      -0.17295300       4.89916800      -3.86478000      -0.28707578       4.78955704      -3.97858327
Si       7.35363000       3.38410000       6.13231000       4.40786200       1.27045000       2.62604800       4.39811631       1.39427342       2.99307000
54
Lattice="8.579999685 0.0 0.0 0.0 8.579999685 0.0 0.0 0.0 8.5799996" Properties=species:S:1:pos:R:3:REF_forces:R:3:MACE_forces:R:3 config_type=Fe34B10Si10 REF_energy=-354.71875992 MACE_energy=-355.2633007687853 pbc="T T T"
Fe       0.43313000       1.19321000       2.96848000       1.47291300       2.99028000       0.61180900       1.64117897       2.97737183       0.33739381
Fe       0.91365000       1.12516000       8.09995000       2.76260400      -2.00335600       1.20968300       2.53181869      -2.09379485       1.10494477
Fe       1.17142000       2.67870000       5.23446000      -1.90323000       6.04651700       0.58026800      -1.69801741       6.29724175       0.62885311
Fe       0.60772000       3.85484000       0.87278000       2.66909500       4.89444800       4.53699300       2.67048104       5.14780266       4.24719339
Fe       1.41565000       3.44858000       3.01161000      -0.29549500       2.03729500      -0.74017400      -0.25676804       1.91708959      -0.68367806
Fe       0.04226000       2.91249000       8.09734000      -3.39897200      -2.84207300      -2.69442200      -3.06765230      -2.80638049      -2.48041598
Fe       1.33282000       7.09057000       5.22634000      -0.45239700      -1.35392500       0.92503500      -0.24253681      -1.50784715       0.83463304
Fe       2.06045000       7.92051000       0.98063000      -3.11321000      -0.30108300      -2.49280600      -3.23752726      -0.51793851      -2.33149226
Fe       2.03627000       8.24295000       3.50701000      -1.42216600       4.38122900       0.88517600      -1.54342829       4.19173024       0.56941718
Fe       0.01253000       8.02686000       7.00667000       2.58679700       0.98610200     -11.80201700       2.52481652       0.82848625     -11.93369817
Fe       3.00353000       0.57289000       6.13981000      -1.03922300       0.18357300       0.93137300      -0.70317053      -0.00091227       1.07426397
Fe       3.69949000       2.65196000       7.51811000       2.76433000      -4.34399200      -3.80269000       2.58309813      -4.15720648      -3.66394003
Fe       2.94478000       6.44154000       3.03987000       7.21319500      -3.66655800      -1.17614100       7.14316520      -3.40376727      -0.96209099
Fe       2.94309000       5.75189000       6.64956000      -6.24071800      -0.74678300       3.86021800      -6.53045194      -0.74677087       3.92109484
Fe       3.71160000       8.39321000       1.86324000       2.24845700      -0.43546600       0.28887200       2.38424172      -0.25259103       0.54048201
Fe       4.07810000       8.43915000       4.32840000       2.88035800       1.28304800      -0.49181300       2.91133741       1.46550720      -0.79651669
Fe       5.57499000       0.73262000       6.31633000      -3.12774100      -1.68249800      -0.98058200      -2.91194891      -1.72786168      -1.01806984
Fe       4.70712000       1.94493000       1.65492000      -2.04675700       4.97917500      -3.67899600      -2.12554013       4.86419161      -3.42198728
Fe       4.73401000       4.18392000       1.24748000       0.71501700       1.80608500      -0.06999200       0.69360252       1.97187590      -0.13102856
Fe       4.56687000       4.22266000       4.39618000       0.73801700       3.32591500      -2.10569900       0.56545791       3.45064963      -2.28057043
Fe       4.51224000       4.61167000       7.05684000       2.53211900      -0.41024200       0.53825400       2.95446267      -0.69045751       0.62206522
Fe       6.32808000       6.81945000       4.24288000      -3.20445400      -0.33519400      -1.28892300      -2.84618851      -0.26973601      -1.06735844
Fe       6.22240000       7.17309000       0.16230000      -3.30904600      -2.75215800       1.90373500      -3.54056714      -2.99275036       1.96621261
Fe       4.54224000       7.44382000       7.03838000       0.17895600      -5.02037800      -8.74618400       0.16170885      -5.29410508      -8.83017167
Fe       4.73272000       8.55832000       8.35561000      -0.10588400       8.96287400       6.54083400      -0.26433220       9.38925854       6.30117679
Fe       7.67285000       2.82429000       2.17742000      -2.12886900      -0.76272600      -2.06587500      -2.12451703      -0.73359178      -1.92198137
Fe       6.74071000       1.77406000       4.33655000       0.47479500       0.50025500      -0.42349800       0.11384044       0.50781592      -0.52197056
Fe       7.16362000       1.61896000       6.68131000       5.11373900       1.83737400       0.70818800       4.87418316       1.65576873       0.62542506
Fe       6.73653000       4.13840000       7.84564000       0.19062300       0.32905600       3.59274800       0.34914973       0.46784456       3.67547152
Fe       6.61248000       5.35948000       2.44590000       0.96755600      -0.77403900      -0.47053600       0.88388579      -0.75706151      -0.42692350
Fe       8.39074000       4.95678000       4.82580000       0.50677700       3.21370700       1.22596300       0.57982122       3.16138280       1.09090769
Fe       6.62275000       6.29700000       6.29237000       0.91106900      -0.58785400       1.74696000       0.84907122      -0.47224172       1.52369263
Fe       8.00875000       8.14674000       2.12563000      -1.25903800      -1.94608200      -3.37077000      -0.85933879      -1.94211839      -3.54748737
Fe       7.96861000       8.10559000       4.08816000       1.24434400       0.03207600       4.40361200       0.66477074      -0.02714990       4.62748919
B        3.14587000       1.61638000       2.59818000      -3.96044800      -1.57388800      -2.24367700      -4.11739449      -1.53930300      -2.22078530
B        4.07212000       1.93087000       3.78701000       0.55534200       0.12762300      -3.25123200       0.41398922       0.00999317      -3.32771629
B        2.24412000       1.90783000       4.05913000      -1.80380000      -9.70850100      -5.48536600      -1.88534728      -9.91970338      -5.58208845
B        2.90130000       3.06657000       4.45062000       2.48509300       7.60479000      -1.50334300       2.80026108       7.17137872      -1.41956827
B        2.82587000       3.80138000       5.80651000       0.21675600       2.27927400       3.92227300       0.27014200       2.12611689       3.94371574
B        2.60929000       5.04297000       1.66311000       0.12617300      -0.77075900      -0.46531300      -0.02426899      -0.94955586      -0.48789523
B        2.47198000       4.95014000       4.32601000      -0.76752800      -1.31946700       0.35153300      -0.89917484      -1.18676892       0.38102799
B        2.73354000       7.81887000       7.66829000      -1.47869400      -0.15377200       0.00458000      -1.43278353      -0.13639298       0.09340023
B        5.68071000       2.28134000       7.79544000      -0.95924500       0.41857400       1.11780500      -1.06324550       0.37729244       1.11426043
B        7.77536000       3.70665000       3.76574000      -0.44877700      -1.48394500      -0.38974400      -0.48528657      -1.40163066      -0.18413641
Si       0.79518000       0.92195000       5.77957000      -1.66645900      -4.94136200      -1.10925300      -1.63774021      -5.05383516      -0.93038693
Si       0.88055000       4.20706000       6.73551000       1.15626000       3.58432200      -0.32349000       1.14489128       3.69282878      -0.31034548
Si       1.15025000       6.44729000       2.43826000      -7.77651300      -1.83655100      -1.54918700      -7.84161950      -1.68849243      -1.76316512
Si       2.82820000       3.29548000       0.50208000      -4.05499500       1.58525200       5.32597100      -4.11415561       1.39602345       5.23538244
Si       4.14031000       6.38272000       0.30005000      -2.16949800      -2.44928300       2.57761000      -2.30826621      -2.35281668       2.44660777
Si       3.68345000       6.43010000       5.01209000       3.98893100       0.98565200      -2.13453700       3.92763700       1.19863895      -2.05750336
Si       5.73751000       0.59059000       2.53265000       5.08228400      -4.90021500       2.23852200       5.16921488      -4.96975108       2.51437585
Si       4.51163000       2.47994000       5.36819000       2.60737700      -2.86786400       7.12589500       2.75663202      -2.58237401       7.31170200
Si       6.43436000       3.75222000       5.86206000       1.38008400       0.66155200      -3.64612400       1.48985778       0.66068943      -3.78036004
Si       8.06432000       7.52318000       8.55473000       2.36409700      -3.06603600      11.34847700       2.70855083      -2.75207204      11.35214280
18
Lattice="6.5 0.0 0.0 0.0 6.5 0.0 0.0 0.0 6.5" Properties=species:S:1:pos:R:3:REF_forces:R:3:MACE_forces:R:3 config_type=Fe12B3Si3 REF_energy=-113.87843945 MACE_energy=-112.38650236228446 pbc="T T T"
Fe       5.40234000       5.43492000       1.53729000      -1.39532100       2.04028400       0.71142300      -1.20026917       2.04781717       0.79584969
Fe       2.09750000       2.10361000       0.54730000       2.35673700      -0.33103000       1.27254800       2.67948314      -0.25722141       1.49758574
Fe       2.84360000       1.73250000       3.81271000       2.28004000      -1.18251600      -0.27344700       2.23321729      -1.06054740      -0.35289544
Fe       0.77541000       4.93717000       1.04317000       1.56096300      -3.83372900       1.76362000       1.53840760      -3.66080614       1.57523577
Fe       0.07665000       3.70431000       3.74351000      -0.75952900      -0.39175400      -2.23189700      -0.94783850      -0.48825511      -2.33660450
Fe       4.77171000       3.58949000       4.78220000      -1.99219600      -4.62409700       0.48420500      -1.76458018      -4.56155313       0.41805768
Fe       4.12430000       1.49867000       1.46476000       0.29771700      -2.38794700       0.28396300       0.34014106      -2.70894009       0.16949706
Fe       0.95387000       5.17746000       5.28728000      -0.57085000      -0.50160400      -1.80733600      -0.84629117      -0.68620783      -1.36260097
Fe       1.93602000       3.09888000       2.36598000      -0.08855100       0.43128300      -0.27209000      -0.23900100       0.54564913      -0.39178302
Fe       5.69037000       1.28357000       4.20026000      -0.40866000      -0.49067900       0.18976600      -0.72858555      -0.35074464       0.25808452
Fe       1.94321000       2.86141000       5.39871000      -0.55906500       0.73218900      -1.80086600      -0.64675790       1.03983448      -2.22383753
Fe       4.33122000       5.38124000       5.25469000      -0.73272900       4.56545400       1.52017900      -0.63751229       4.48563006       1.57688014
B        0.37598000       1.64060000       1.21420000      -3.21263000       2.85095800       0.76078000      -3.17140117       2.80640825       0.99588526
B        1.88110000       4.04794000       3.96741000       2.48956600       2.45119300      -0.32261600       2.55531565       2.32210548      -0.32049907
B        3.63878000       0.94242000       5.41981000      -0.01444500       0.67937600       0.95779200       0.05495129       0.78556680       1.07211611
Si       1.19380000       0.26963000       0.19686000       0.54051800       0.24528300      -1.93219100       0.63547377       0.00176550      -1.90732458
Si       4.57825000       3.47658000       1.16117000       0.15934200       1.26766700      -0.81102600       0.22663650       1.38197362      -0.75538417
Si       1.09558000       0.76720000       2.75124000       0.04909300      -1.52033200       1.50719200      -0.08138938      -1.64247474       1.29173729
54
Lattice="8.579999685 0.0 0.0 0.0 8.579999685 0.0 0.0 0.0 8.5799996" Properties=species:S:1:pos:R:3:REF_forces:R:3:MACE_forces:R:3 config_type=Fe34B10Si10 REF_energy=-356.0869274 MACE_energy=-356.9794319596642 pbc="T T T"
Fe       0.92877000       1.08311000       2.12831000      -0.53214900      -1.15432400       0.53007800      -0.64973664      -1.16374688       0.43893467
Fe       1.12794000       0.45096000       7.37327000      -2.86345100       2.18226700       1.45805300      -2.72053004       2.02284022       1.42299297
Fe       0.91289000       3.61082000       1.96264000      -1.66570100       0.50807500      -4.76654600      -1.59710301       0.18445770      -4.56820302
Fe       0.97242000       3.25012000       3.83975000      -0.85629000      -1.23507100      -0.91491200      -1.12969236      -1.09326445      -0.57173332
Fe       1.43574000       3.84332000       5.84621000      -1.94378300      -0.72872400       4.94145300      -2.04375062      -0.54390903       4.75928850
Fe       0.45897000       5.99881000       1.32384000       1.86679900       1.45939200      -0.33976700       1.68790368       1.46425990      -0.15380472
Fe       0.05714000       6.25044000       6.01250000       0.66851500      -0.88142700       1.67028200       0.61073707      -0.75100156       1.68967020
Fe       1.87526000       7.05991000       7.27744000      -5.90957000       6.81146600       5.95768600      -5.64052110       7.01689657       5.76845537
Fe       4.21220000       0.80536000       3.81626000       0.44958900      -1.97725700       0.54591300       0.53078608      -1.82557402       0.43889690
Fe       2.64196000       0.75311000       5.88605000       0.80305000      -0.92688600      -1.50973400       0.50602171      -1.07069397      -1.48438002
Fe       2.51735000       4.27963000       7.86001000      -0.17185400       2.88247300       0.00075600      -0.17351892       3.04213917       0.03560787
Fe       2.46175000       4.76211000       4.38544000       2.27245000       6.36429500      -0.60000700       2.32260703       6.37177157      -0.51049403
Fe       3.99132000       4.46692000       6.09268000      -0.21521200      -1.96607600      -0.25853400      -0.29381741      -2.19399238      -0.16244844
Fe       4.03283000       6.20484000       2.50717000       0.32509400      -1.83048700       1.07686200       0.40258254      -1.76002766       1.08435471
Fe       2.62183000       8.12097000       1.25125000      -5.45108600      -1.04608100      -0.88869000      -5.56165812      -1.12278253      -0.66696592
Fe       2.34208000       7.49949000       3.33705000      -1.45221900       0.10179900       1.96325000      -1.29708655       0.10693815       1.59393267
Fe       4.67554000       0.98699000       8.35162000       1.97529500       0.95938300       0.07305200       1.72145990       0.86813794       0.33354130
Fe       4.68615000       2.28426000       1.60336000       6.03713100       4.39249100       1.56082500       6.17796219       4.36500451       1.10929594
Fe       4.95897000       4.28949000       0.91503000       1.24258400       3.77490300      -1.07876200       0.80023442       3.55499350      -1.17101415
Fe       5.62605000       3.84953000       3.25301000      -4.56775200       3.43217100       2.09526400      -4.68893991       3.47116856       1.90175626
Fe       5.63153000       5.70233000       4.67966000       0.04558900       0.36352900      -0.74034800       0.11289716      -0.04613489      -0.60035787
Fe       5.00954000       6.14620000       6.89198000       4.51113600      -2.60361300       1.43664400       4.55173034      -2.53260948       1.29952615
Fe       5.34723000       7.32984000       0.56425000       3.41130600      -7.55812200      -7.44238600       3.28182440      -7.11650883      -7.12391835
Fe       4.57141000       8.20633000       1.67615000      -2.51651100       6.57056000       9.11650700      -2.42073427       6.14848231       8.82905036
Fe       5.67084000       7.83697000       6.02451000      -0.02983000       3.57151200       0.33120700      -0.05887466       3.67527795       0.44756443
Fe       7.65837000       1.05332000       0.64336000       1.95813700       2.93603900      -3.62028800       1.83736816       2.82490670      -3.43862336
Fe       7.23579000       1.49494000       3.62009000       0.88838800      -1.50203300       3.00240400       1.06449383      -1.47757748       2.99516340
Fe       6.96409000       1.59543000       6.70415000       0.40175100      -2.57633900      -0.54943900       0.44938645      -2.41905322      -0.48461601
Fe       6.97946000       3.05325000       2.27831000       3.01329100      -2.85779700      -7.80747400       2.62201193      -2.90144041      -7.39481014
Fe       7.05854000       3.62734000       7.13255000       0.94483300       2.42104600       2.56329500       1.00904170       2.31752267       2.38208918
Fe       7.47490000       4.49325000       0.92243000      -3.13561000       0.06366500       0.11142200      -2.83298327       0.40048212      -0.13418620
Fe       7.76499000       5.40883000       4.05655000       3.42051700      -2.49950500       1.10150300       3.57613395      -2.64900708       1.13615560
Fe       6.91686000       6.16423000       2.38917000      -4.34160700       0.52717700      -3.24358900      -4.34891442       0.82216191      -3.23981494
Fe       7.31773000       7.39473000       4.73130000      -1.41907300       3.06948200       1.38572900      -1.43958409       2.97629898       1.33862743
B        1.63947000       5.44017000       2.85377000      -1.37965300       1.67099600      -0.34434500      -1.46229297       1.73576969      -0.55552093
B        3.47444000       1.29905000       1.69513000      -6.04542900      -7.46227000      -1.52467000      -6.09209086      -6.95262097      -1.26955592
B        2.31673000       1.42955000       3.77944000      -1.85652800      -2.14982900       3.21956500      -1.81700005      -1.95604958       3.33532234
B        3.17088000       0.01260000       8.16689000      -2.14308300      -0.12737100      -3.63430700      -2.08785710       0.11733942      -3.47704174
B        2.48887000       2.23189000       2.44876000      -1.30373000       3.96631200      -0.94871100      -0.90017888       3.73262701      -1.23003401
B        3.55016000       3.21990000       0.17024000       2.13469500      -3.52588700       0.23974700       2.14295085      -3.56489733       0.37894325
B        3.12966000       3.07291000       4.24572000      -6.99085300       0.34377600      -0.16579100      -6.89257402       0.10143797      -0.19241904
B        2.38358000       5.95301000       6.34325000       2.25901800      -8.76611800      -6.31465800       2.10613288      -9.05060724      -6.39568969
B        4.46260000       2.62992000       4.23823000       7.08507900      -1.75449200       0.40993300       6.99002386      -1.84761437       0.36842387
B        7.51183000       3.59374000       3.85724000       1.49621300      -1.20378300       3.39561400       1.50995753      -1.02166285       3.23286620
Si       0.50050000       1.66927000       5.10425000      -1.02554400      -2.67263500       2.61432900      -0.78535109      -2.98155303       2.57892960
Si       0.41923000       4.50138000       8.15701000       0.82744200      -0.47721100      -2.57541600       1.10892230      -0.43820280      -2.76204059
Si       2.90131000       4.25049000       1.93860000       2.71957100       0.04497600      -0.88170100       2.71788348      -0.00805877      -1.02861248
Si       3.74353000       6.85388000       5.19884000      -1.20766000       1.80214700      -2.20114300      -1.07179189       1.92048037      -2.09538074
Si       3.54209000       6.47938000       8.21357000      -0.45014500      -1.75854100       4.24377300      -0.59878118      -2.03007751       4.42335588
Si       4.55252000       1.74669000       6.40118000       0.28733400       0.20348600      -1.69136000       0.26805674       0.21013091      -1.63142351
Si       5.87020000       3.30923000       5.41310000       1.93974000       0.55942400      -1.14043100       1.67578488       0.83610063      -1.19797118
Si       6.68392000       0.09389000       2.07850000      -2.78148600      -1.30329400       2.70552900      -2.58529402      -1.25592775       2.84681900
Si       7.30980000       7.36953000       0.08595000       4.18267400      -0.22507900      -1.67891000       4.37837786      -0.39926757      -1.74990155
Si       8.41387000       7.50606000       2.97540000       5.08859000       1.78741200      -0.88875800       5.02738452       1.88623719      -0.87860222
54
Lattice="8.579999685 0.0 0.0 0.0 8.579999685 0.0 0.0 0.0 8.5799996" Properties=species:S:1:pos:R:3:REF_forces:R:3:MACE_forces:R:3 config_type=Fe34B10Si10 REF_energy=-359.84864784 MACE_energy=-360.3438624653965 pbc="T T T"
Fe       0.39531000       2.37288000       0.87042000       3.27925500       2.43832800      -1.60261100       3.18077806       2.65231434      -1.72357228
Fe       0.75383000       1.65209000       3.11094000       1.30783500      -0.34615400      -0.09267000       1.34593841      -0.75506798       0.04002674
Fe       1.33201000       3.79282000       7.26231000      -2.40668100      -1.18131200       0.32245500      -2.49515145      -1.15349123       0.21225634
Fe       0.64436000       4.41396000       2.97573000       2.42004200      -2.26182600       0.38963900       2.44999544      -2.06404744       0.22898216
Fe       0.14751000       6.42079000       3.51005000      -3.07002100       1.32407200      -2.30638400      -3.15332934       1.32259454      -2.47560920