54
Lattice="8.579999685 0.0 0.0 0.0 8.579999685 0.0 0.0 0.0 8.5799996" Properties=species:S:1:pos:R:3:REF_forces:R:3:MACE_forces:R:3 config_type=Fe34B10Si10 REF_energy=-352.89092233 MACE_energy=-353.30074009276814 pbc="T T T"
Fe       1.46495000       0.71583000       1.12880000       3.73230100      -3.41607500      -3.76209700       3.68104510      -3.44156415      -3.55686234
Fe       0.56244000       2.07917000       1.96452000      -3.31290700       4.06628900       2.54508600      -3.34763621       4.06570632       2.35521130
Fe       0.86636000       2.12990000       5.00906000     -10.85567700      -2.87102900      12.20968700     -10.88540930      -2.94366526      12.20539394
Fe       0.24697000       2.61233000       7.83061000      -0.37811800      -2.03816900      -0.08744800      -0.36783067      -2.07095630       0.09473628
Fe       0.35437000       4.66395000       8.16447000      -1.30300600       1.62250000       0.84662400      -1.36215808       1.75881975       0.79309256
Fe       0.83543000       8.00840000       3.01492000       5.54921000      -2.55787300       0.52513800       5.59545365      -2.64518566       0.46289428
Fe       2.03952000       7.84431000       6.63062000      -4.28706100       1.82495200      -1.68802900      -4.06243573       2.03769843      -1.71181340
Fe       3.34318000       0.11090000       2.96052000      -0.46571400      -0.35056300       0.37864800      -0.49477105      -0.17347497       0.45875524
Fe       3.26317000       2.11539000       1.48699000      -3.47884800      -0.03222100       0.61542300      -3.30380073      -0.26248891       0.24398872
Fe       4.14313000       2.75755000       3.31065000      -0.71378000      -2.73118300       1.93004800      -0.70206415      -2.44495573       1.88201755
Fe       2.55051000       2.67374000       7.19710000      -2.55215900      -0.93589000       1.77261600      -2.28841367      -1.02982155       1.70007351
Fe       3.61327000       2.86500000       5.46497000       1.55763200       0.20514300      -0.56676300       1.45927124       0.30583835      -0.28441557
Fe       2.62400000       4.72550000       1.39174000      -1.08585200      -1.19598700       0.59645400      -1.34238464      -0.96513175       0.68319104
Fe       2.20317000       5.21693000       3.87451000      -3.92870900      -4.38103900      -4.92199500      -3.88904169      -4.32089785      -5.03925066
Fe       3.93082000       4.37819000       8.08226000       1.07616800       0.44807800      -0.99700400       0.96845844       0.24649606      -1.01605221
Fe       2.44961000       7.01753000       1.08943000       0.32119000      -1.55635000       3.27006500       0.44237427      -1.61120894       3.34915455
Fe       3.02500000       6.15780000       5.08193000      -1.08486800       1.64126100       3.95415400      -0.36319774       1.66329080       3.98825796
Fe       5.77712000       0.44616000       0.16142000      -2.43333700       0.07175000       4.13474700      -2.42468327       0.42222180       4.17957885
Fe       5.66964000       0.14892000       2.95259000      -3.67617900       1.90971100       0.12919700      -3.69783881       1.66368958       0.30514841
Fe       5.39484000       2.66317000       1.55162000       4.08183700      -3.39937100       3.88213200       3.98686686      -3.76708670       4.13869533
Fe       5.91309000       3.40423000       8.31953000       8.90196200       5.48305700      -2.72562400       8.72397393       5.42480905      -2.75548885
Fe       4.96126000       4.63305000       3.41410000      -3.60269200      -2.00302700       2.25051900      -3.89027863      -2.33379627       2.38771065
Fe       5.11347000       6.81217000       1.78872000      -0.87770500       0.06714300      -1.61156800      -0.72072078       0.12318590      -1.63016012
Fe       5.00950000       6.45991000       8.24507000      -2.30619500      -0.19808200      -1.52355700      -2.20667447      -0.02948182      -1.73813795
Fe       4.64263000       7.71190000       5.75084000       2.50156800       4.23919200      -1.55456800       2.56013268       4.27214154      -1.60187163
Fe       7.32285000       0.33022000       5.03535000      -0.99210900      -0.59745100       4.73628300      -0.98317883      -0.36136691       4.70819025
Fe       6.75330000       1.32958000       7.05071000       0.53851300       2.01290400       0.36400700       0.48923416       1.87367188       0.32102567
Fe       6.82686000       2.53028000       3.66692000      -0.08907100      -0.12987400      -0.26318300       0.03791801      -0.19723646      -0.21854669
Fe       6.83617000       5.56618000       0.59386000       1.74434500       1.47371700      -3.32847200       1.79356956       1.77545932      -3.48576089
Fe       8.27091000       4.29855000       2.87718000       3.23308900       0.33980500       1.37352500       3.09539253       0.18480104       1.32866711
Fe       6.58774000       4.90718000       4.97515000      -1.87594500       0.58060600      -0.05143700      -2.07760729       0.58361622      -0.52346013
Fe       6.86773000       6.79187000       3.27473000       1.52763600      -2.76254700       0.67579100       1.47305405      -2.45444405       0.36455234
Fe       8.09083000       8.29691000       0.84396000      -4.18921500      -1.95965200       9.56442300      -4.21743689      -2.25665875       9.63345854
Fe       6.62133000       7.67903000       7.47205000      -3.65417600       1.51975600      -3.32990400      -3.97100004       1.30495742      -3.47219874
B        3.45077000       6.81738000       6.75435000       2.04131500      -2.79808300       3.80923700       1.95833700      -2.85735894       3.91913399
B        4.67436000       1.10514000       4.73414000       0.75036200       0.95391600      -0.52852700       0.79934587       0.93344205      -0.42565083
B        6.18153000       2.20088000       5.47737000      -4.49435700      -3.20609500      -2.27763700      -4.63386349      -3.16134324      -2.44262333
B        5.08133000       4.10197000       6.35983000       0.35152900       0.25548900      -0.65354500       0.49398471       0.30864185      -0.57972739
B        4.48663000       4.29393000       1.40792000      -0.27448100       1.04603100       0.21283300      -0.23328733       1.22125046       0.22673396
B        4.96286000       5.88068000       6.14703000       0.60492000      -1.85032800       0.29314600       0.47223985      -1.87419402       0.12718401
B        8.17242000       5.65216000       5.55863000       1.00443800       0.65677900      -0.69824300       1.05435704       0.73365451      -0.23443164
B        7.98743000       6.92663000       6.60530000       5.86774900       2.58695800      -4.05103700       5.76822830       2.29286129      -3.60261143
B        7.10769000       5.72812000       6.91109000      -2.33709700      -3.34606800       1.34633400      -2.12365996      -3.40957088       1.52421490
B        7.81665000       6.81498000       8.33858000       5.04350100      -2.41043400       0.97359300       5.01349360      -2.59381771       0.52673606
Si       0.06983000       0.14925000       7.74742000       4.12649000       2.60901100      -8.87608100       3.98335852       2.59562650      -8.80412085
Si       1.93337000       2.41223000       3.74634000      10.14534600       2.98113100     -12.18526000      10.22962752       3.05270813     -12.01415964
Si       0.75978000       6.02813000       1.69309000      -4.13401100      -0.74920300       1.02787300      -4.13471540      -0.86071149       0.96899167
Si       2.22023000       5.10313000       7.16329000      -1.58663400       1.19675500      -1.89967800      -1.66235690       1.16742692      -1.85029036
Si       3.27754000       8.17117000       8.35443000       4.04667900       4.58101600      -2.24829100       3.92474862       4.53129754      -2.38133487
Si       4.48145000       2.18337000       8.34202000      -5.72220500      -5.96162700      -4.99603400      -5.45918510      -5.92141885      -5.15006319
Si       6.36439000       4.54151000       2.12641000       2.28764700      -2.33178900       1.39384200       2.55979028      -2.14307623       1.28024548
Si       4.52267000       6.51460000       3.75633000       0.42177200       5.22743800       1.25328700       0.12387255       5.30790094       1.34265060
Si       7.68278000       0.22257000       3.11016000      -0.17295300       4.89916800      -3.86478000      -0.23750292       4.85389327      -3.93439046
Si       7.35363000       3.38410000       6.13231000       4.40786200       1.27045000       2.62604800       4.39500549       1.42580644       2.95373844
54
Lattice="8.579999685 0.0 0.0 0.0 8.579999685 0.0 0.0 0.0 8.5799996" Properties=species:S:1:pos:R:3:REF_forces:R:3:MACE_forces:R:3 config_type=Fe34B10Si10 REF_energy=-354.71875992 MACE_energy=-355.394375619227 pbc="T T T"
Fe       0.43313000       1.19321000       2.96848000       1.47291300       2.99028000       0.61180900       1.45299214       2.89689310       0.36921390
Fe       0.91365000       1.12516000       8.09995000       2.76260400      -2.00335600       1.20968300       2.38958152      -1.87353376       1.06656956
Fe       1.17142000       2.67870000       5.23446000      -1.90323000       6.04651700       0.58026800      -1.70244059       6.14538064       0.37465061
Fe       0.60772000       3.85484000       0.87278000       2.66909500       4.89444800       4.53699300       2.62943849       5.09783331       4.14417435
Fe       1.41565000       3.44858000       3.01161000      -0.29549500       2.03729500      -0.74017400      -0.00978541       1.92757543      -0.65341316
Fe       0.04226000       2.91249000       8.09734000      -3.39897200      -2.84207300      -2.69442200      -2.78654058      -3.00458157      -2.44361768
Fe       1.33282000       7.09057000       5.22634000      -0.45239700      -1.35392500       0.92503500      -0.23186844      -1.48380302       0.95297624
Fe       2.06045000       7.92051000       0.98063000      -3.11321000      -0.30108300      -2.49280600      -3.26521894      -0.42951813      -2.48208134
Fe       2.03627000       8.24295000       3.50701000      -1.42216600       4.38122900       0.88517600      -1.51591876       4.10808185       0.63689212
Fe       0.01253000       8.02686000       7.00667000       2.58679700       0.98610200     -11.80201700       2.46273325       0.88457465     -11.92327261
Fe       3.00353000       0.57289000       6.13981000      -1.03922300       0.18357300       0.93137300      -0.77409177       0.14012630       0.99201213
Fe       3.69949000       2.65196000       7.51811000       2.76433000      -4.34399200      -3.80269000       2.60680758      -4.12329584      -3.67206685
Fe       2.94478000       6.44154000       3.03987000       7.21319500      -3.66655800      -1.17614100       6.99011276      -3.46796779      -0.99474923
Fe       2.94309000       5.75189000       6.64956000      -6.24071800      -0.74678300       3.86021800      -6.43199964      -0.63832458       3.98537106
Fe       3.71160000       8.39321000       1.86324000       2.24845700      -0.43546600       0.28887200       2.33756335      -0.10519130       0.68207856
Fe       4.07810000       8.43915000       4.32840000       2.88035800       1.28304800      -0.49181300       2.85120453       1.32076850      -0.77196850
Fe       5.57499000       0.73262000       6.31633000      -3.12774100      -1.68249800      -0.98058200      -2.79691107      -1.72260980      -0.92361731
Fe       4.70712000       1.94493000       1.65492000      -2.04675700       4.97917500      -3.67899600      -2.14032625       4.79134630      -3.42647632
Fe       4.73401000       4.18392000       1.24748000       0.71501700       1.80608500      -0.06999200       0.71857241       1.98444293      -0.12361326
Fe       4.56687000       4.22266000       4.39618000       0.73801700       3.32591500      -2.10569900       0.51972616       3.16369611      -2.15969992
Fe       4.51224000       4.61167000       7.05684000       2.53211900      -0.41024200       0.53825400       2.96555063      -0.74403679       0.48408107
Fe       6.32808000       6.81945000       4.24288000      -3.20445400      -0.33519400      -1.28892300      -2.80234631      -0.23603920      -1.07216280
Fe       6.22240000       7.17309000       0.16230000      -3.30904600      -2.75215800       1.90373500      -3.50897634      -2.96912580       2.04526643
Fe       4.54224000       7.44382000       7.03838000       0.17895600      -5.02037800      -8.74618400       0.30214526      -5.27922453      -8.87123229
Fe       4.73272000       8.55832000       8.35561000      -0.10588400       8.96287400       6.54083400      -0.30089421       9.36242892       6.19817719
Fe       7.67285000       2.82429000       2.17742000      -2.12886900      -0.76272600      -2.06587500      -2.11528778      -0.83070606      -1.98345390
Fe       6.74071000       1.77406000       4.33655000       0.47479500       0.50025500      -0.42349800       0.08023189       0.41100737      -0.45597260
Fe       7.16362000       1.61896000       6.68131000       5.11373900       1.83737400       0.70818800       4.71105630       1.63409193       0.63798348
Fe       6.73653000       4.13840000       7.84564000       0.19062300       0.32905600       3.59274800       0.16768453       0.47437882       3.61641252
Fe       6.61248000       5.35948000       2.44590000       0.96755600      -0.77403900      -0.47053600       0.84931028      -0.66410830      -0.45951202
Fe       8.39074000       4.95678000       4.82580000       0.50677700       3.21370700       1.22596300       0.59848962       3.13827560       1.08365866
Fe       6.62275000       6.29700000       6.29237000       0.91106900      -0.58785400       1.74696000       0.82696838      -0.48477721       1.60302421
Fe       8.00875000       8.14674000       2.12563000      -1.25903800      -1.94608200      -3.37077000      -0.86250261      -1.93185329      -3.42863255
Fe       7.96861000       8.10559000       4.08816000       1.24434400       0.03207600       4.40361200       0.71837563       0.04787155       4.56191878
B        3.14587000       1.61638000       2.59818000      -3.96044800      -1.57388800      -2.24367700      -3.98834433      -1.49401791      -2.03378348
B        4.07212000       1.93087000       3.78701000       0.55534200       0.12762300      -3.25123200       0.40607560       0.17632586      -3.19801866
B        2.24412000       1.90783000       4.05913000      -1.80380000      -9.70850100      -5.48536600      -1.86906895     -10.00573797      -5.62566869
B        2.90130000       3.06657000       4.45062000       2.48509300       7.60479000      -1.50334300       2.84638544       7.25828921      -1.51541584
B        2.82587000       3.80138000       5.80651000       0.21675600       2.27927400       3.92227300       0.28355920       2.15157963       3.90943784
B        2.60929000       5.04297000       1.66311000       0.12617300      -0.77075900      -0.46531300      -0.03599512      -0.80958608      -0.44322447
B        2.47198000       4.95014000       4.32601000      -0.76752800      -1.31946700       0.35153300      -0.81063942      -1.22014808       0.40672270
B        2.73354000       7.81887000       7.66829000      -1.47869400      -0.15377200       0.00458000      -1.52683332      -0.17020884       0.21751004
B        5.68071000       2.28134000       7.79544000      -0.95924500       0.41857400       1.11780500      -0.96272370       0.37346696       1.06538751
B        7.77536000       3.70665000       3.76574000      -0.44877700      -1.48394500      -0.38974400      -0.54616276      -1.40185163      -0.07111165
Si       0.79518000       0.92195000       5.77957000      -1.66645900      -4.94136200      -1.10925300      -1.61759230      -5.03501419      -0.95564442
Si       0.88055000       4.20706000       6.73551000       1.15626000       3.58432200      -0.32349000       1.11575265       3.71076498      -0.23415310
Si       1.15025000       6.44729000       2.43826000      -7.77651300      -1.83655100      -1.54918700      -7.83940627      -1.70975942      -1.70680563
Si       2.82820000       3.29548000       0.50208000      -4.05499500       1.58525200       5.32597100      -4.07998074       1.41882355       5.24487501
Si       4.14031000       6.38272000       0.30005000      -2.16949800      -2.44928300       2.57761000      -2.29111778      -2.41810457       2.48967576
Si       3.68345000       6.43010000       5.01209000       3.98893100       0.98565200      -2.13453700       3.85398281       1.16631685      -2.14059218
Si       5.73751000       0.59059000       2.53265000       5.08228400      -4.90021500       2.23852200       5.10313989      -4.87036519       2.49746675
Si       4.51163000       2.47994000       5.36819000       2.60737700      -2.86786400       7.12589500       2.78645026      -2.62142209       7.06805590
Si       6.43436000       3.75222000       5.86206000       1.38008400       0.66155200      -3.64612400       1.51918342       0.73806718      -3.74592381
Si       8.06432000       7.52318000       8.55473000       2.36409700      -3.06603600      11.34847700       2.71989941      -2.77749458      11.18229189
18
Lattice="6.5 0.0 0.0 0.0 6.5 0.0 0.0 0.0 6.5" Properties=species:S:1:pos:R:3:REF_forces:R:3:MACE_forces:R:3 config_type=Fe12B3Si3 REF_energy=-113.87843945 MACE_energy=-113.07940081220542 pbc="T T T"
Fe       5.40234000       5.43492000       1.53729000      -1.39532100       2.04028400       0.71142300      -1.01470178       1.85220273       0.69931162
Fe       2.09750000       2.10361000       0.54730000       2.35673700      -0.33103000       1.27254800       2.53789230      -0.08817598       1.29130143
Fe       2.84360000       1.73250000       3.81271000       2.28004000      -1.18251600      -0.27344700       2.21199229      -0.97955829      -0.21060456
Fe       0.77541000       4.93717000       1.04317000       1.56096300      -3.83372900       1.76362000       1.26775574      -3.41555163       1.56250272
Fe       0.07665000       3.70431000       3.74351000      -0.75952900      -0.39175400      -2.23189700      -1.16433177      -0.48126554      -2.26675361
Fe       4.77171000       3.58949000       4.78220000      -1.99219600      -4.62409700       0.48420500      -1.66050691      -4.51083683       0.38529386
Fe       4.12430000       1.49867000       1.46476000       0.29771700      -2.38794700       0.28396300       0.28543756      -2.65377804       0.10528517
Fe       0.95387000       5.17746000       5.28728000      -0.57085000      -0.50160400      -1.80733600      -0.93889333      -0.68372570      -1.34921809
Fe       1.93602000       3.09888000       2.36598000      -0.08855100       0.43128300      -0.27209000      -0.21878440       0.50978613      -0.56574859
Fe       5.69037000       1.28357000       4.20026000      -0.40866000      -0.49067900       0.18976600      -0.80925520      -0.30569183       0.24311312
Fe       1.94321000       2.86141000       5.39871000      -0.55906500       0.73218900      -1.80086600      -0.48458962       0.69044160      -1.93120297
Fe       4.33122000       5.38124000       5.25469000      -0.73272900       4.56545400       1.52017900      -0.57491999       4.34456748       1.54666950
B        0.37598000       1.64060000       1.21420000      -3.21263000       2.85095800       0.76078000      -3.01955125       2.71214342       0.85875968
B        1.88110000       4.04794000       3.96741000       2.48956600       2.45119300      -0.32261600       2.67534522       2.40074743      -0.28598892
B        3.63878000       0.94242000       5.41981000      -0.01444500       0.67937600       0.95779200       0.13903166       0.81977384       1.10489151
Si       1.19380000       0.26963000       0.19686000       0.54051800       0.24528300      -1.93219100       0.64605860      -0.01888973      -1.85751085
Si       4.57825000       3.47658000       1.16117000       0.15934200       1.26766700      -0.81102600       0.18618036       1.48144848      -0.77911190
Si       1.09558000       0.76720000       2.75124000       0.04909300      -1.52033200       1.50719200      -0.06415950      -1.67363755       1.44901086
54
Lattice="8.579999685 0.0 0.0 0.0 8.579999685 0.0 0.0 0.0 8.5799996" Properties=species:S:1:pos:R:3:REF_forces:R:3:MACE_forces:R:3 config_type=Fe34B10Si10 REF_energy=-356.0869274 MACE_energy=-356.9618002383817 pbc="T T T"
Fe       0.92877000       1.08311000       2.12831000      -0.53214900      -1.15432400       0.53007800      -0.70781603      -1.20086695       0.40841139
Fe       1.12794000       0.45096000       7.37327000      -2.86345100       2.18226700       1.45805300      -2.83683433       1.97641831       1.45132018
Fe       0.91289000       3.61082000       1.96264000      -1.66570100       0.50807500      -4.76654600      -1.69611632       0.35740679      -4.79976320
Fe       0.97242000       3.25012000       3.83975000      -0.85629000      -1.23507100      -0.91491200      -1.08081666      -1.22939281      -0.20698511
Fe       1.43574000       3.84332000       5.84621000      -1.94378300      -0.72872400       4.94145300      -2.07873921      -0.60698801       4.68998354
Fe       0.45897000       5.99881000       1.32384000       1.86679900       1.45939200      -0.33976700       1.63802485       1.54451437      -0.16349929
Fe       0.05714000       6.25044000       6.01250000       0.66851500      -0.88142700       1.67028200       0.71128828      -0.77184444       1.73515465
Fe       1.87526000       7.05991000       7.27744000      -5.90957000       6.81146600       5.95768600      -5.75774596       7.21545123       5.98112867
Fe       4.21220000       0.80536000       3.81626000       0.44958900      -1.97725700       0.54591300       0.50373346      -1.90123826       0.44161166
Fe       2.64196000       0.75311000       5.88605000       0.80305000      -0.92688600      -1.50973400       0.53187328      -1.04896170      -1.57279386
Fe       2.51735000       4.27963000       7.86001000      -0.17185400       2.88247300       0.00075600       0.00065441       2.95978571       0.20266994
Fe       2.46175000       4.76211000       4.38544000       2.27245000       6.36429500      -0.60000700       2.18441628       6.33580068      -0.67732671
Fe       3.99132000       4.46692000       6.09268000      -0.21521200      -1.96607600      -0.25853400      -0.17599057      -2.24534769      -0.19815475
Fe       4.03283000       6.20484000       2.50717000       0.32509400      -1.83048700       1.07686200       0.41830809      -1.76603627       1.09512569
Fe       2.62183000       8.12097000       1.25125000      -5.45108600      -1.04608100      -0.88869000      -5.51709714      -1.11316551      -0.64164727
Fe       2.34208000       7.49949000       3.33705000      -1.45221900       0.10179900       1.96325000      -1.24622936       0.18697158       1.63247522
Fe       4.67554000       0.98699000       8.35162000       1.97529500       0.95938300       0.07305200       1.66500519       0.84326305       0.33517918
Fe       4.68615000       2.28426000       1.60336000       6.03713100       4.39249100       1.56082500       6.23985534       4.32996347       1.16912121
Fe       4.95897000       4.28949000       0.91503000       1.24258400       3.77490300      -1.07876200       0.78017116       3.54977832      -1.25377053
Fe       5.62605000       3.84953000       3.25301000      -4.56775200       3.43217100       2.09526400      -4.55329415       3.54640787       1.90382641
Fe       5.63153000       5.70233000       4.67966000       0.04558900       0.36352900      -0.74034800       0.01611510      -0.05159483      -0.59901132
Fe       5.00954000       6.14620000       6.89198000       4.51113600      -2.60361300       1.43664400       4.57611039      -2.38158303       1.43401753
Fe       5.34723000       7.32984000       0.56425000       3.41130600      -7.55812200      -7.44238600       3.44121210      -7.02400702      -7.23077478
Fe       4.57141000       8.20633000       1.67615000      -2.51651100       6.57056000       9.11650700      -2.67561252       6.07845589       8.68887886
Fe       5.67084000       7.83697000       6.02451000      -0.02983000       3.57151200       0.33120700      -0.06478061       3.63532164       0.35453676
Fe       7.65837000       1.05332000       0.64336000       1.95813700       2.93603900      -3.62028800       1.88766774       2.94260979      -3.54369727
Fe       7.23579000       1.49494000       3.62009000       0.88838800      -1.50203300       3.00240400       0.95528635      -1.52229041       3.07507332
Fe       6.96409000       1.59543000       6.70415000       0.40175100      -2.57633900      -0.54943900       0.51907861      -2.54540151      -0.55826457
Fe       6.97946000       3.05325000       2.27831000       3.01329100      -2.85779700      -7.80747400       2.46188920      -2.94962598      -7.26587355
Fe       7.05854000       3.62734000       7.13255000       0.94483300       2.42104600       2.56329500       1.03435713       2.47842074       2.49725840
Fe       7.47490000       4.49325000       0.92243000      -3.13561000       0.06366500       0.11142200      -2.89889502       0.45930823      -0.22410762
Fe       7.76499000       5.40883000       4.05655000       3.42051700      -2.49950500       1.10150300       3.49967738      -2.66288839       1.11632920
Fe       6.91686000       6.16423000       2.38917000      -4.34160700       0.52717700      -3.24358900      -4.32229110       0.60324906      -3.20244767
Fe       7.31773000       7.39473000       4.73130000      -1.41907300       3.06948200       1.38572900      -1.46362087       3.02833895       1.38704873
B        1.63947000       5.44017000       2.85377000      -1.37965300       1.67099600      -0.34434500      -1.51322397       1.78145537      -0.60464136
B        3.47444000       1.29905000       1.69513000      -6.04542900      -7.46227000      -1.52467000      -5.89433924      -7.18391046      -1.13690201
B        2.31673000       1.42955000       3.77944000      -1.85652800      -2.14982900       3.21956500      -1.72076736      -1.99223217       3.45052378
B        3.17088000       0.01260000       8.16689000      -2.14308300      -0.12737100      -3.63430700      -1.99427559       0.11487671      -3.57864276
B        2.48887000       2.23189000       2.44876000      -1.30373000       3.96631200      -0.94871100      -0.89723228       3.84255273      -1.29274315
B        3.55016000       3.21990000       0.17024000       2.13469500      -3.52588700       0.23974700       2.15871689      -3.43743179       0.30026985
B        3.12966000       3.07291000       4.24572000      -6.99085300       0.34377600      -0.16579100      -7.12901793       0.13805068      -0.19313713
B        2.38358000       5.95301000       6.34325000       2.25901800      -8.76611800      -6.31465800       2.17965960      -9.23194367      -6.58360867
B        4.46260000       2.62992000       4.23823000       7.08507900      -1.75449200       0.40993300       7.20154400      -1.83697315       0.45335060
B        7.51183000       3.59374000       3.85724000       1.49621300      -1.20378300       3.39561400       1.54305969      -1.09140506       3.24049783
Si       0.50050000       1.66927000       5.10425000      -1.02554400      -2.67263500       2.61432900      -0.79842534      -2.91331166       2.60060211
Si       0.41923000       4.50138000       8.15701000       0.82744200      -0.47721100      -2.57541600       1.06287097      -0.40751297      -2.83603239
Si       2.90131000       4.25049000       1.93860000       2.71957100       0.04497600      -0.88170100       2.90436080      -0.02001720      -1.08274926
Si       3.74353000       6.85388000       5.19884000      -1.20766000       1.80214700      -2.20114300      -1.07104468       2.05335230      -2.15671579
Si       3.54209000       6.47938000       8.21357000      -0.45014500      -1.75854100       4.24377300      -0.54075419      -2.00436596       4.44803098
Si       4.55252000       1.74669000       6.40118000       0.28733400       0.20348600      -1.69136000       0.25755522       0.14778805      -1.64450448
Si       5.87020000       3.30923000       5.41310000       1.93974000       0.55942400      -1.14043100       1.57185046       0.77165277      -1.08252359
Si       6.68392000       0.09389000       2.07850000      -2.78148600      -1.30329400       2.70552900      -2.46695609      -1.24036649       2.82155231
Si       7.30980000       7.36953000       0.08595000       4.18267400      -0.22507900      -1.67891000       4.12207737      -0.51567070      -1.67784829
Si       8.41387000       7.50606000       2.97540000       5.08859000       1.78741200      -0.88875800       5.03549718       1.97517977      -0.90581164
54
Lattice="8.579999685 0.0 0.0 0.0 8.579999685 0.0 0.0 0.0 8.5799996" Properties=species:S:1:pos:R:3:REF_forces:R:3:MACE_forces:R:3 config_type=Fe34B10Si10 REF_energy=-359.84864784 MACE_energy=-360.30350295130296 pbc="T T T"
Fe       0.39531000       2.37288000       0.87042000       3.27925500       2.43832800      -1.60261100       3.21459673       2.69026856      -1.77492594
Fe       0.75383000       1.65209000       3.11094000       1.30783500      -0.34615400      -0.09267000       1.28572908      -0.85945351       0.12656631
Fe       1.33201000       3.79282000       7.26231000      -2.40668100      -1.18131200       0.32245500      -2.55672148      -1.10267697       0.24430735
Fe       0.64436000       4.41396000       2.97573000       2.42004200      -2.26182600       0.38963900       2.49225766      -2.09900764       0.27530151
Fe       0.14751000       6.42079000       3.51005000      -3.07002100       1.32407200      -2.30638400      -3.10321850       1.32061196      -2.45086850