54
Lattice="8.579999685 0.0 0.0 0.0 8.579999685 0.0 0.0 0.0 8.5799996" Properties=species:S:1:pos:R:3:REF_forces:R:3:MACE_forces:R:3 config_type=Fe34B10Si10 REF_energy=-352.89092233 MACE_energy=-353.1680873921208 pbc="T T T"
Fe       1.46495000       0.71583000       1.12880000       3.73230100      -3.41607500      -3.76209700       3.76942487      -3.47981711      -3.63760283
Fe       0.56244000       2.07917000       1.96452000      -3.31290700       4.06628900       2.54508600      -3.37242800       4.09661653       2.40357415
Fe       0.86636000       2.12990000       5.00906000     -10.85567700      -2.87102900      12.20968700     -10.90609255      -2.93897119      12.18706417
Fe       0.24697000       2.61233000       7.83061000      -0.37811800      -2.03816900      -0.08744800      -0.35237744      -2.09484977       0.11677272
Fe       0.35437000       4.66395000       8.16447000      -1.30300600       1.62250000       0.84662400      -1.33821006       1.69137719       0.84115975
Fe       0.83543000       8.00840000       3.01492000       5.54921000      -2.55787300       0.52513800       5.59732820      -2.61237362       0.45496290
Fe       2.03952000       7.84431000       6.63062000      -4.28706100       1.82495200      -1.68802900      -4.00886490       2.06173568      -1.69512386
Fe       3.34318000       0.11090000       2.96052000      -0.46571400      -0.35056300       0.37864800      -0.47435341      -0.17156210       0.49696038
Fe       3.26317000       2.11539000       1.48699000      -3.47884800      -0.03222100       0.61542300      -3.35489521      -0.28151376       0.21909796
Fe       4.14313000       2.75755000       3.31065000      -0.71378000      -2.73118300       1.93004800      -0.68310961      -2.49824192       1.89514633
Fe       2.55051000       2.67374000       7.19710000      -2.55215900      -0.93589000       1.77261600      -2.29468964      -1.04201353       1.70739376
Fe       3.61327000       2.86500000       5.46497000       1.55763200       0.20514300      -0.56676300       1.47614477       0.29828063      -0.24184877
Fe       2.62400000       4.72550000       1.39174000      -1.08585200      -1.19598700       0.59645400      -1.34619897      -0.93715226       0.71374813
Fe       2.20317000       5.21693000       3.87451000      -3.92870900      -4.38103900      -4.92199500      -3.88142093      -4.38875238      -4.97551866
Fe       3.93082000       4.37819000       8.08226000       1.07616800       0.44807800      -0.99700400       0.99746243       0.29417486      -1.04360271
Fe       2.44961000       7.01753000       1.08943000       0.32119000      -1.55635000       3.27006500       0.46481510      -1.60161740       3.30918881
Fe       3.02500000       6.15780000       5.08193000      -1.08486800       1.64126100       3.95415400      -0.38809099       1.60931388       3.92442853
Fe       5.77712000       0.44616000       0.16142000      -2.43333700       0.07175000       4.13474700      -2.43822876       0.41403996       4.19724976
Fe       5.66964000       0.14892000       2.95259000      -3.67617900       1.90971100       0.12919700      -3.74356973       1.66666981       0.30047648
Fe       5.39484000       2.66317000       1.55162000       4.08183700      -3.39937100       3.88213200       3.95857823      -3.74300662       4.07186946
Fe       5.91309000       3.40423000       8.31953000       8.90196200       5.48305700      -2.72562400       8.72393323       5.48749885      -2.80692281
Fe       4.96126000       4.63305000       3.41410000      -3.60269200      -2.00302700       2.25051900      -3.87720511      -2.29820560       2.36661674
Fe       5.11347000       6.81217000       1.78872000      -0.87770500       0.06714300      -1.61156800      -0.69738056       0.10716776      -1.62213485
Fe       5.00950000       6.45991000       8.24507000      -2.30619500      -0.19808200      -1.52355700      -2.19734113      -0.04932763      -1.66941660
Fe       4.64263000       7.71190000       5.75084000       2.50156800       4.23919200      -1.55456800       2.57483286       4.28179661      -1.63662197
Fe       7.32285000       0.33022000       5.03535000      -0.99210900      -0.59745100       4.73628300      -0.99801691      -0.42433467       4.79959915
Fe       6.75330000       1.32958000       7.05071000       0.53851300       2.01290400       0.36400700       0.46765856       1.88697091       0.32622191
Fe       6.82686000       2.53028000       3.66692000      -0.08907100      -0.12987400      -0.26318300       0.02662808      -0.20803213      -0.22598813
Fe       6.83617000       5.56618000       0.59386000       1.74434500       1.47371700      -3.32847200       1.90131765       1.88599215      -3.46086562
Fe       8.27091000       4.29855000       2.87718000       3.23308900       0.33980500       1.37352500       3.15149959       0.21115830       1.37980887
Fe       6.58774000       4.90718000       4.97515000      -1.87594500       0.58060600      -0.05143700      -2.09479814       0.49708153      -0.53834892
Fe       6.86773000       6.79187000       3.27473000       1.52763600      -2.76254700       0.67579100       1.48771608      -2.44053241       0.31873826
Fe       8.09083000       8.29691000       0.84396000      -4.18921500      -1.95965200       9.56442300      -4.31541006      -2.38244173       9.61687015
Fe       6.62133000       7.67903000       7.47205000      -3.65417600       1.51975600      -3.32990400      -3.94665455       1.27430952      -3.46837506
B        3.45077000       6.81738000       6.75435000       2.04131500      -2.79808300       3.80923700       1.89584583      -2.73480841       3.89810357
B        4.67436000       1.10514000       4.73414000       0.75036200       0.95391600      -0.52852700       0.83162825       0.89578660      -0.41016077
B        6.18153000       2.20088000       5.47737000      -4.49435700      -3.20609500      -2.27763700      -4.75995510      -3.13781853      -2.42983848
B        5.08133000       4.10197000       6.35983000       0.35152900       0.25548900      -0.65354500       0.48400756       0.35704393      -0.64676735
B        4.48663000       4.29393000       1.40792000      -0.27448100       1.04603100       0.21283300      -0.23006585       1.16074029       0.24432956
B        4.96286000       5.88068000       6.14703000       0.60492000      -1.85032800       0.29314600       0.54032944      -1.96656895       0.14868791
B        8.17242000       5.65216000       5.55863000       1.00443800       0.65677900      -0.69824300       1.06452116       0.79931246      -0.30776733
B        7.98743000       6.92663000       6.60530000       5.86774900       2.58695800      -4.05103700       5.77649491       2.33619257      -3.73507331
B        7.10769000       5.72812000       6.91109000      -2.33709700      -3.34606800       1.34633400      -2.24719455      -3.41511438       1.60068110
B        7.81665000       6.81498000       8.33858000       5.04350100      -2.41043400       0.97359300       5.06286295      -2.55894481       0.60717087
Si       0.06983000       0.14925000       7.74742000       4.12649000       2.60901100      -8.87608100       4.07389152       2.62506747      -8.80940763
Si       1.93337000       2.41223000       3.74634000      10.14534600       2.98113100     -12.18526000      10.23847560       3.06557818     -11.98191298
Si       0.75978000       6.02813000       1.69309000      -4.13401100      -0.74920300       1.02787300      -4.15068404      -0.83493748       0.93986472
Si       2.22023000       5.10313000       7.16329000      -1.58663400       1.19675500      -1.89967800      -1.67395883       1.10112499      -1.87427104
Si       3.27754000       8.17117000       8.35443000       4.04667900       4.58101600      -2.24829100       3.94101692       4.55061709      -2.40013162
Si       4.48145000       2.18337000       8.34202000      -5.72220500      -5.96162700      -4.99603400      -5.49014008      -5.97140454      -5.12826716
Si       6.36439000       4.54151000       2.12641000       2.28764700      -2.33178900       1.39384200       2.48004565      -2.11264019       1.33008639
Si       4.52267000       6.51460000       3.75633000       0.42177200       5.22743800       1.25328700       0.12167777       5.34725306       1.36343651
Si       7.68278000       0.22257000       3.11016000      -0.17295300       4.89916800      -3.86478000      -0.26981543       4.82600970      -3.96031748
Si       7.35363000       3.38410000       6.13231000       4.40786200       1.27045000       2.62604800       4.42301334       1.49607263       2.92697693
54
Lattice="8.579999685 0.0 0.0 0.0 8.579999685 0.0 0.0 0.0 8.5799996" Properties=species:S:1:pos:R:3:REF_forces:R:3:MACE_forces:R:3 config_type=Fe34B10Si10 REF_energy=-354.71875992 MACE_energy=-355.3279040074961 pbc="T T T"
Fe       0.43313000       1.19321000       2.96848000       1.47291300       2.99028000       0.61180900       1.45891595       2.89737056       0.31801785
Fe       0.91365000       1.12516000       8.09995000       2.76260400      -2.00335600       1.20968300       2.39479852      -1.97894178       1.05414112
Fe       1.17142000       2.67870000       5.23446000      -1.90323000       6.04651700       0.58026800      -1.73667659       6.11532288       0.35516644
Fe       0.60772000       3.85484000       0.87278000       2.66909500       4.89444800       4.53699300       2.52112263       4.98654116       4.10509743
Fe       1.41565000       3.44858000       3.01161000      -0.29549500       2.03729500      -0.74017400      -0.08176632       1.91883006      -0.64518284
Fe       0.04226000       2.91249000       8.09734000      -3.39897200      -2.84207300      -2.69442200      -2.73652391      -2.78841831      -2.29530995
Fe       1.33282000       7.09057000       5.22634000      -0.45239700      -1.35392500       0.92503500      -0.22932466      -1.50477597       0.94948522
Fe       2.06045000       7.92051000       0.98063000      -3.11321000      -0.30108300      -2.49280600      -3.13162184      -0.40606685      -2.44385674
Fe       2.03627000       8.24295000       3.50701000      -1.42216600       4.38122900       0.88517600      -1.46887967       4.15084595       0.66768231
Fe       0.01253000       8.02686000       7.00667000       2.58679700       0.98610200     -11.80201700       2.44988332       0.86832434     -11.87032790
Fe       3.00353000       0.57289000       6.13981000      -1.03922300       0.18357300       0.93137300      -0.77628797       0.15207807       1.03690145
Fe       3.69949000       2.65196000       7.51811000       2.76433000      -4.34399200      -3.80269000       2.56050636      -4.15221766      -3.68190794
Fe       2.94478000       6.44154000       3.03987000       7.21319500      -3.66655800      -1.17614100       6.97633915      -3.47040009      -0.99512127
Fe       2.94309000       5.75189000       6.64956000      -6.24071800      -0.74678300       3.86021800      -6.40378237      -0.64787740       3.89651446
Fe       3.71160000       8.39321000       1.86324000       2.24845700      -0.43546600       0.28887200       2.21510391      -0.15914714       0.71146430
Fe       4.07810000       8.43915000       4.32840000       2.88035800       1.28304800      -0.49181300       2.84218634       1.35020623      -0.74529079
Fe       5.57499000       0.73262000       6.31633000      -3.12774100      -1.68249800      -0.98058200      -2.85913578      -1.75843240      -0.94091893
Fe       4.70712000       1.94493000       1.65492000      -2.04675700       4.97917500      -3.67899600      -2.15952214       4.73464051      -3.44753903
Fe       4.73401000       4.18392000       1.24748000       0.71501700       1.80608500      -0.06999200       0.69337458       1.95391837      -0.11795694
Fe       4.56687000       4.22266000       4.39618000       0.73801700       3.32591500      -2.10569900       0.53984643       3.15959016      -2.15597890
Fe       4.51224000       4.61167000       7.05684000       2.53211900      -0.41024200       0.53825400       2.95287850      -0.70172508       0.47514304
Fe       6.32808000       6.81945000       4.24288000      -3.20445400      -0.33519400      -1.28892300      -2.81048767      -0.24353379      -1.06921658
Fe       6.22240000       7.17309000       0.16230000      -3.30904600      -2.75215800       1.90373500      -3.50690211      -3.02200619       2.06724475
Fe       4.54224000       7.44382000       7.03838000       0.17895600      -5.02037800      -8.74618400       0.32053341      -5.22648318      -8.84341875
Fe       4.73272000       8.55832000       8.35561000      -0.10588400       8.96287400       6.54083400      -0.21713062       9.44501859       6.14456794
Fe       7.67285000       2.82429000       2.17742000      -2.12886900      -0.76272600      -2.06587500      -2.05419390      -0.83369242      -1.98524786
Fe       6.74071000       1.77406000       4.33655000       0.47479500       0.50025500      -0.42349800       0.10286629       0.44952707      -0.41472532
Fe       7.16362000       1.61896000       6.68131000       5.11373900       1.83737400       0.70818800       4.75548037       1.68982070       0.62177067
Fe       6.73653000       4.13840000       7.84564000       0.19062300       0.32905600       3.59274800       0.11083391       0.48822622       3.63259884
Fe       6.61248000       5.35948000       2.44590000       0.96755600      -0.77403900      -0.47053600       0.85964202      -0.66818693      -0.49697132
Fe       8.39074000       4.95678000       4.82580000       0.50677700       3.21370700       1.22596300       0.61013902       3.09663378       1.08790770
Fe       6.62275000       6.29700000       6.29237000       0.91106900      -0.58785400       1.74696000       0.79099477      -0.46016936       1.60876375
Fe       8.00875000       8.14674000       2.12563000      -1.25903800      -1.94608200      -3.37077000      -0.91257908      -1.96784354      -3.37937797
Fe       7.96861000       8.10559000       4.08816000       1.24434400       0.03207600       4.40361200       0.69264641       0.02754111       4.48104866
B        3.14587000       1.61638000       2.59818000      -3.96044800      -1.57388800      -2.24367700      -3.97208085      -1.47365862      -2.03103068
B        4.07212000       1.93087000       3.78701000       0.55534200       0.12762300      -3.25123200       0.38254694       0.15505281      -3.19619486
B        2.24412000       1.90783000       4.05913000      -1.80380000      -9.70850100      -5.48536600      -1.83299231      -9.98343624      -5.59972400
B        2.90130000       3.06657000       4.45062000       2.48509300       7.60479000      -1.50334300       2.96491314       7.31161303      -1.51751033
B        2.82587000       3.80138000       5.80651000       0.21675600       2.27927400       3.92227300       0.28384270       2.15058312       3.89887766
B        2.60929000       5.04297000       1.66311000       0.12617300      -0.77075900      -0.46531300      -0.10175082      -0.80994626      -0.41622857
B        2.47198000       4.95014000       4.32601000      -0.76752800      -1.31946700       0.35153300      -0.81652615      -1.14749775       0.36291533
B        2.73354000       7.81887000       7.66829000      -1.47869400      -0.15377200       0.00458000      -1.55326676      -0.18889878       0.17902724
B        5.68071000       2.28134000       7.79544000      -0.95924500       0.41857400       1.11780500      -0.94805898       0.33058814       1.06095438
B        7.77536000       3.70665000       3.76574000      -0.44877700      -1.48394500      -0.38974400      -0.52126786      -1.37696811      -0.06032130
Si       0.79518000       0.92195000       5.77957000      -1.66645900      -4.94136200      -1.10925300      -1.62781774      -5.07592271      -0.92544207
Si       0.88055000       4.20706000       6.73551000       1.15626000       3.58432200      -0.32349000       1.14000134       3.73496963      -0.21562315
Si       1.15025000       6.44729000       2.43826000      -7.77651300      -1.83655100      -1.54918700      -7.89644522      -1.72926874      -1.74444403
Si       2.82820000       3.29548000       0.50208000      -4.05499500       1.58525200       5.32597100      -4.10250065       1.47890681       5.31312526
Si       4.14031000       6.38272000       0.30005000      -2.16949800      -2.44928300       2.57761000      -2.22508966      -2.45572856       2.51279009
Si       3.68345000       6.43010000       5.01209000       3.98893100       0.98565200      -2.13453700       3.81563314       1.18672298      -2.06357207
Si       5.73751000       0.59059000       2.53265000       5.08228400      -4.90021500       2.23852200       5.18053444      -4.91370571       2.46861924
Si       4.51163000       2.47994000       5.36819000       2.60737700      -2.86786400       7.12589500       2.77699270      -2.69821482       7.00775230
Si       6.43436000       3.75222000       5.86206000       1.38008400       0.66155200      -3.64612400       1.56522630       0.77866860      -3.81701551
Si       8.06432000       7.52318000       8.55473000       2.36409700      -3.06603600      11.34847700       2.72482905      -2.76837648      11.09787814
18
Lattice="6.5 0.0 0.0 0.0 6.5 0.0 0.0 0.0 6.5" Properties=species:S:1:pos:R:3:REF_forces:R:3:MACE_forces:R:3 config_type=Fe12B3Si3 REF_energy=-113.87843945 MACE_energy=-113.12957247948987 pbc="T T T"
Fe       5.40234000       5.43492000       1.53729000      -1.39532100       2.04028400       0.71142300      -1.13368389       1.87818513       0.68056515
Fe       2.09750000       2.10361000       0.54730000       2.35673700      -0.33103000       1.27254800       2.48601386      -0.12828011       1.19457758
Fe       2.84360000       1.73250000       3.81271000       2.28004000      -1.18251600      -0.27344700       2.13340766      -0.97131572      -0.18443186
Fe       0.77541000       4.93717000       1.04317000       1.56096300      -3.83372900       1.76362000       1.38752743      -3.56547883       1.54420485
Fe       0.07665000       3.70431000       3.74351000      -0.75952900      -0.39175400      -2.23189700      -1.03043100      -0.44707363      -2.28909691
Fe       4.77171000       3.58949000       4.78220000      -1.99219600      -4.62409700       0.48420500      -1.73786393      -4.60443562       0.42839771
Fe       4.12430000       1.49867000       1.46476000       0.29771700      -2.38794700       0.28396300       0.35578206      -2.64251505       0.13565052
Fe       0.95387000       5.17746000       5.28728000      -0.57085000      -0.50160400      -1.80733600      -0.95776858      -0.69621183      -1.34345360
Fe       1.93602000       3.09888000       2.36598000      -0.08855100       0.43128300      -0.27209000      -0.18137328       0.59483803      -0.43318245
Fe       5.69037000       1.28357000       4.20026000      -0.40866000      -0.49067900       0.18976600      -0.73732051      -0.27912814       0.23474249
Fe       1.94321000       2.86141000       5.39871000      -0.55906500       0.73218900      -1.80086600      -0.53429686       0.79778487      -1.97738835
Fe       4.33122000       5.38124000       5.25469000      -0.73272900       4.56545400       1.52017900      -0.65678828       4.44824406       1.51936362
B        0.37598000       1.64060000       1.21420000      -3.21263000       2.85095800       0.76078000      -3.11432113       2.71909722       0.91718540
B        1.88110000       4.04794000       3.96741000       2.48956600       2.45119300      -0.32261600       2.62681968       2.31011383      -0.28917892
B        3.63878000       0.94242000       5.41981000      -0.01444500       0.67937600       0.95779200       0.16239362       0.79598261       1.07586496
Si       1.19380000       0.26963000       0.19686000       0.54051800       0.24528300      -1.93219100       0.73119024       0.04301637      -1.92896305
Si       4.57825000       3.47658000       1.16117000       0.15934200       1.26766700      -0.81102600       0.20015571       1.41845048      -0.73629243
Si       1.09558000       0.76720000       2.75124000       0.04909300      -1.52033200       1.50719200       0.00055718      -1.67127368       1.45143529
54
Lattice="8.579999685 0.0 0.0 0.0 8.579999685 0.0 0.0 0.0 8.5799996" Properties=species:S:1:pos:R:3:REF_forces:R:3:MACE_forces:R:3 config_type=Fe34B10Si10 REF_energy=-356.0869274 MACE_energy=-356.88211792001056 pbc="T T T"
Fe       0.92877000       1.08311000       2.12831000      -0.53214900      -1.15432400       0.53007800      -0.68710988      -1.22146613       0.39921867
Fe       1.12794000       0.45096000       7.37327000      -2.86345100       2.18226700       1.45805300      -2.82610535       1.98084567       1.42228217
Fe       0.91289000       3.61082000       1.96264000      -1.66570100       0.50807500      -4.76654600      -1.61608224       0.25094782      -4.73470769
Fe       0.97242000       3.25012000       3.83975000      -0.85629000      -1.23507100      -0.91491200      -1.12666855      -1.18678385      -0.29724512
Fe       1.43574000       3.84332000       5.84621000      -1.94378300      -0.72872400       4.94145300      -2.10184871      -0.57471611       4.70351761
Fe       0.45897000       5.99881000       1.32384000       1.86679900       1.45939200      -0.33976700       1.63500028       1.59575494      -0.19877622
Fe       0.05714000       6.25044000       6.01250000       0.66851500      -0.88142700       1.67028200       0.78917821      -0.74630691       1.77723778
Fe       1.87526000       7.05991000       7.27744000      -5.90957000       6.81146600       5.95768600      -5.78924238       7.24753073       5.95334799
Fe       4.21220000       0.80536000       3.81626000       0.44958900      -1.97725700       0.54591300       0.51370116      -1.85115318       0.43998441
Fe       2.64196000       0.75311000       5.88605000       0.80305000      -0.92688600      -1.50973400       0.56332912      -1.08557422      -1.58847238
Fe       2.51735000       4.27963000       7.86001000      -0.17185400       2.88247300       0.00075600       0.01252234       2.96287138       0.32524701
Fe       2.46175000       4.76211000       4.38544000       2.27245000       6.36429500      -0.60000700       2.23194481       6.35292915      -0.58251841
Fe       3.99132000       4.46692000       6.09268000      -0.21521200      -1.96607600      -0.25853400      -0.19237106      -2.18825896      -0.17496148
Fe       4.03283000       6.20484000       2.50717000       0.32509400      -1.83048700       1.07686200       0.45186623      -1.70065647       1.14718241
Fe       2.62183000       8.12097000       1.25125000      -5.45108600      -1.04608100      -0.88869000      -5.48797546      -1.02030697      -0.59036103
Fe       2.34208000       7.49949000       3.33705000      -1.45221900       0.10179900       1.96325000      -1.26086521       0.16726303       1.61483838
Fe       4.67554000       0.98699000       8.35162000       1.97529500       0.95938300       0.07305200       1.71305981       0.75882887       0.37790649
Fe       4.68615000       2.28426000       1.60336000       6.03713100       4.39249100       1.56082500       6.21696449       4.32064111       1.14715538
Fe       4.95897000       4.28949000       0.91503000       1.24258400       3.77490300      -1.07876200       0.70182549       3.47686099      -1.28298454
Fe       5.62605000       3.84953000       3.25301000      -4.56775200       3.43217100       2.09526400      -4.57942171       3.50315375       1.93103740
Fe       5.63153000       5.70233000       4.67966000       0.04558900       0.36352900      -0.74034800       0.07339896      -0.07698830      -0.62640051
Fe       5.00954000       6.14620000       6.89198000       4.51113600      -2.60361300       1.43664400       4.53327800      -2.36650863       1.40746709
Fe       5.34723000       7.32984000       0.56425000       3.41130600      -7.55812200      -7.44238600       3.37098113      -7.07331189      -7.31662199
Fe       4.57141000       8.20633000       1.67615000      -2.51651100       6.57056000       9.11650700      -2.74922764       6.20793211       8.75539376
Fe       5.67084000       7.83697000       6.02451000      -0.02983000       3.57151200       0.33120700      -0.08875027       3.70165213       0.38812321
Fe       7.65837000       1.05332000       0.64336000       1.95813700       2.93603900      -3.62028800       1.88005114       3.00781905      -3.55162282
Fe       7.23579000       1.49494000       3.62009000       0.88838800      -1.50203300       3.00240400       0.95396618      -1.57970397       3.05404558
Fe       6.96409000       1.59543000       6.70415000       0.40175100      -2.57633900      -0.54943900       0.51285418      -2.54422334      -0.50562568
Fe       6.97946000       3.05325000       2.27831000       3.01329100      -2.85779700      -7.80747400       2.45738168      -3.02540478      -7.20166102
Fe       7.05854000       3.62734000       7.13255000       0.94483300       2.42104600       2.56329500       1.02663682       2.43392133       2.45664850
Fe       7.47490000       4.49325000       0.92243000      -3.13561000       0.06366500       0.11142200      -2.93971467       0.44490628      -0.31936594
Fe       7.76499000       5.40883000       4.05655000       3.42051700      -2.49950500       1.10150300       3.49125446      -2.63797339       1.16272270
Fe       6.91686000       6.16423000       2.38917000      -4.34160700       0.52717700      -3.24358900      -4.30334390       0.68036215      -3.21861268
Fe       7.31773000       7.39473000       4.73130000      -1.41907300       3.06948200       1.38572900      -1.39353325       3.06590941       1.30198714
B        1.63947000       5.44017000       2.85377000      -1.37965300       1.67099600      -0.34434500      -1.50096814       1.79146037      -0.59952807
B        3.47444000       1.29905000       1.69513000      -6.04542900      -7.46227000      -1.52467000      -5.89891208      -7.24163922      -1.13316050
B        2.31673000       1.42955000       3.77944000      -1.85652800      -2.14982900       3.21956500      -1.72269842      -1.94833682       3.47613431
B        3.17088000       0.01260000       8.16689000      -2.14308300      -0.12737100      -3.63430700      -2.03623473       0.09795467      -3.56049889
B        2.48887000       2.23189000       2.44876000      -1.30373000       3.96631200      -0.94871100      -0.89351455       3.82848981      -1.25776701
B        3.55016000       3.21990000       0.17024000       2.13469500      -3.52588700       0.23974700       2.15848102      -3.43995359       0.20708726
B        3.12966000       3.07291000       4.24572000      -6.99085300       0.34377600      -0.16579100      -7.13230385       0.02708839      -0.30075274
B        2.38358000       5.95301000       6.34325000       2.25901800      -8.76611800      -6.31465800       2.21196920      -9.19287157      -6.57548666
B        4.46260000       2.62992000       4.23823000       7.08507900      -1.75449200       0.40993300       7.25028110      -1.75301889       0.48595036
B        7.51183000       3.59374000       3.85724000       1.49621300      -1.20378300       3.39561400       1.50621305      -1.11378460       3.28638755
Si       0.50050000       1.66927000       5.10425000      -1.02554400      -2.67263500       2.61432900      -0.82134714      -2.91662659       2.55387650
Si       0.41923000       4.50138000       8.15701000       0.82744200      -0.47721100      -2.57541600       1.07260600      -0.46129361      -2.81435665
Si       2.90131000       4.25049000       1.93860000       2.71957100       0.04497600      -0.88170100       2.92195730      -0.05659049      -1.07969631
Si       3.74353000       6.85388000       5.19884000      -1.20766000       1.80214700      -2.20114300      -1.08221606       1.97994307      -2.19139652
Si       3.54209000       6.47938000       8.21357000      -0.45014500      -1.75854100       4.24377300      -0.56194611      -1.99014654       4.48036269
Si       4.55252000       1.74669000       6.40118000       0.28733400       0.20348600      -1.69136000       0.29599688       0.17004006      -1.67279253
Si       5.87020000       3.30923000       5.41310000       1.93974000       0.55942400      -1.14043100       1.58789913       0.71684792      -1.16157438
Si       6.68392000       0.09389000       2.07850000      -2.78148600      -1.30329400       2.70552900      -2.46328821      -1.19709995       2.85918305
Si       7.30980000       7.36953000       0.08595000       4.18267400      -0.22507900      -1.67891000       4.14133138      -0.55177174      -1.68702203
Si       8.41387000       7.50606000       2.97540000       5.08859000       1.78741200      -0.88875800       4.97976006       1.97051653      -0.89035561
54
Lattice="8.579999685 0.0 0.0 0.0 8.579999685 0.0 0.0 0.0 8.5799996" Properties=species:S:1:pos:R:3:REF_forces:R:3:MACE_forces:R:3 config_type=Fe34B10Si10 REF_energy=-359.84864784 MACE_energy=-360.27745649190007 pbc="T T T"
Fe       0.39531000       2.37288000       0.87042000       3.27925500       2.43832800      -1.60261100       3.23131171       2.63009009      -1.75791921
Fe       0.75383000       1.65209000       3.11094000       1.30783500      -0.34615400      -0.09267000       1.32623375      -0.82499542       0.13440657
Fe       1.33201000       3.79282000       7.26231000      -2.40668100      -1.18131200       0.32245500      -2.55052160      -1.03622467       0.17895880
Fe       0.64436000       4.41396000       2.97573000       2.42004200      -2.26182600       0.38963900       2.46642056      -2.07432786       0.20299445
Fe       0.14751000       6.42079000       3.51005000      -3.07002100       1.32407200      -2.30638400      -3.12275384       1.36645766      -2.50191501