54
Lattice="8.579999685 0.0 0.0 0.0 8.579999685 0.0 0.0 0.0 8.5799996" Properties=species:S:1:pos:R:3:REF_forces:R:3:MACE_forces:R:3 config_type=Fe34B10Si10 REF_energy=-352.89092233 MACE_energy=-353.26745919142667 pbc="T T T"
Fe       1.46495000       0.71583000       1.12880000       3.73230100      -3.41607500      -3.76209700       3.74910915      -3.49804747      -3.67970871
Fe       0.56244000       2.07917000       1.96452000      -3.31290700       4.06628900       2.54508600      -3.37280715       4.12060076       2.41319767
Fe       0.86636000       2.12990000       5.00906000     -10.85567700      -2.87102900      12.20968700     -10.93342339      -2.93464243      12.18228007
Fe       0.24697000       2.61233000       7.83061000      -0.37811800      -2.03816900      -0.08744800      -0.32253004      -2.07790469       0.12313549
Fe       0.35437000       4.66395000       8.16447000      -1.30300600       1.62250000       0.84662400      -1.36760152       1.68177331       0.81691473
Fe       0.83543000       8.00840000       3.01492000       5.54921000      -2.55787300       0.52513800       5.55163041      -2.64232916       0.44855542
Fe       2.03952000       7.84431000       6.63062000      -4.28706100       1.82495200      -1.68802900      -4.02200715       2.03197864      -1.69033880
Fe       3.34318000       0.11090000       2.96052000      -0.46571400      -0.35056300       0.37864800      -0.47431166      -0.18156779       0.48817386
Fe       3.26317000       2.11539000       1.48699000      -3.47884800      -0.03222100       0.61542300      -3.31979780      -0.27942458       0.21965196
Fe       4.14313000       2.75755000       3.31065000      -0.71378000      -2.73118300       1.93004800      -0.67971429      -2.48032305       1.90927486
Fe       2.55051000       2.67374000       7.19710000      -2.55215900      -0.93589000       1.77261600      -2.33213938      -1.03703876       1.70926701
Fe       3.61327000       2.86500000       5.46497000       1.55763200       0.20514300      -0.56676300       1.46484648       0.32940809      -0.26846788
Fe       2.62400000       4.72550000       1.39174000      -1.08585200      -1.19598700       0.59645400      -1.37066237      -0.92025127       0.71481913
Fe       2.20317000       5.21693000       3.87451000      -3.92870900      -4.38103900      -4.92199500      -3.84781037      -4.35778173      -5.00913731
Fe       3.93082000       4.37819000       8.08226000       1.07616800       0.44807800      -0.99700400       1.03951429       0.26604103      -1.07780552
Fe       2.44961000       7.01753000       1.08943000       0.32119000      -1.55635000       3.27006500       0.45911252      -1.64162971       3.32618702
Fe       3.02500000       6.15780000       5.08193000      -1.08486800       1.64126100       3.95415400      -0.44683295       1.57361989       3.90846624
Fe       5.77712000       0.44616000       0.16142000      -2.43333700       0.07175000       4.13474700      -2.40901466       0.43476144       4.19257237
Fe       5.66964000       0.14892000       2.95259000      -3.67617900       1.90971100       0.12919700      -3.70196456       1.66047868       0.28337085
Fe       5.39484000       2.66317000       1.55162000       4.08183700      -3.39937100       3.88213200       3.96000574      -3.76226911       4.10208516
Fe       5.91309000       3.40423000       8.31953000       8.90196200       5.48305700      -2.72562400       8.69785158       5.51207867      -2.76627676
Fe       4.96126000       4.63305000       3.41410000      -3.60269200      -2.00302700       2.25051900      -3.85825882      -2.25764359       2.40166609
Fe       5.11347000       6.81217000       1.78872000      -0.87770500       0.06714300      -1.61156800      -0.66643097       0.12000040      -1.59310507
Fe       5.00950000       6.45991000       8.24507000      -2.30619500      -0.19808200      -1.52355700      -2.21357762      -0.03771527      -1.67308521
Fe       4.64263000       7.71190000       5.75084000       2.50156800       4.23919200      -1.55456800       2.57063137       4.24683568      -1.65949935
Fe       7.32285000       0.33022000       5.03535000      -0.99210900      -0.59745100       4.73628300      -1.03557883      -0.38815965       4.74109398
Fe       6.75330000       1.32958000       7.05071000       0.53851300       2.01290400       0.36400700       0.47426610       1.87258213       0.34545478
Fe       6.82686000       2.53028000       3.66692000      -0.08907100      -0.12987400      -0.26318300       0.03150946      -0.19707801      -0.24892497
Fe       6.83617000       5.56618000       0.59386000       1.74434500       1.47371700      -3.32847200       1.81964547       1.85973333      -3.44647492
Fe       8.27091000       4.29855000       2.87718000       3.23308900       0.33980500       1.37352500       3.12693560       0.18954270       1.37491426
Fe       6.58774000       4.90718000       4.97515000      -1.87594500       0.58060600      -0.05143700      -2.06733049       0.52228967      -0.62779375
Fe       6.86773000       6.79187000       3.27473000       1.52763600      -2.76254700       0.67579100       1.46454223      -2.45703001       0.34818459
Fe       8.09083000       8.29691000       0.84396000      -4.18921500      -1.95965200       9.56442300      -4.30191149      -2.30972842       9.56511478
Fe       6.62133000       7.67903000       7.47205000      -3.65417600       1.51975600      -3.32990400      -3.96749128       1.32548622      -3.46720060
B        3.45077000       6.81738000       6.75435000       2.04131500      -2.79808300       3.80923700       1.89229420      -2.77845553       3.96504663
B        4.67436000       1.10514000       4.73414000       0.75036200       0.95391600      -0.52852700       0.82459642       0.88048082      -0.41055631
B        6.18153000       2.20088000       5.47737000      -4.49435700      -3.20609500      -2.27763700      -4.66544454      -3.15980266      -2.39732856
B        5.08133000       4.10197000       6.35983000       0.35152900       0.25548900      -0.65354500       0.53135331       0.37548348      -0.61896190
B        4.48663000       4.29393000       1.40792000      -0.27448100       1.04603100       0.21283300      -0.20719627       1.18809063       0.24163977
B        4.96286000       5.88068000       6.14703000       0.60492000      -1.85032800       0.29314600       0.50802419      -1.92093383       0.14953739
B        8.17242000       5.65216000       5.55863000       1.00443800       0.65677900      -0.69824300       1.00202219       0.79349844      -0.29730599
B        7.98743000       6.92663000       6.60530000       5.86774900       2.58695800      -4.05103700       5.78080702       2.32690867      -3.74552177
B        7.10769000       5.72812000       6.91109000      -2.33709700      -3.34606800       1.34633400      -2.12378590      -3.39006707       1.66108151
B        7.81665000       6.81498000       8.33858000       5.04350100      -2.41043400       0.97359300       5.10841741      -2.65727663       0.59091470
Si       0.06983000       0.14925000       7.74742000       4.12649000       2.60901100      -8.87608100       4.04361160       2.61131729      -8.75090572
Si       1.93337000       2.41223000       3.74634000      10.14534600       2.98113100     -12.18526000      10.23335626       3.06908959     -12.00712864
Si       0.75978000       6.02813000       1.69309000      -4.13401100      -0.74920300       1.02787300      -4.14198137      -0.83107647       0.98083811
Si       2.22023000       5.10313000       7.16329000      -1.58663400       1.19675500      -1.89967800      -1.64090910       1.14709562      -1.90557731
Si       3.27754000       8.17117000       8.35443000       4.04667900       4.58101600      -2.24829100       3.92947610       4.58466270      -2.40651704
Si       4.48145000       2.18337000       8.34202000      -5.72220500      -5.96162700      -4.99603400      -5.51336847      -5.96192855      -5.12738730
Si       6.36439000       4.54151000       2.12641000       2.28764700      -2.33178900       1.39384200       2.52151629      -2.12022095       1.34259274
Si       4.52267000       6.51460000       3.75633000       0.42177200       5.22743800       1.25328700       0.11941826       5.30347131       1.34303650
Si       7.68278000       0.22257000       3.11016000      -0.17295300       4.89916800      -3.86478000      -0.26504279       4.81978514      -3.94867725
Si       7.35363000       3.38410000       6.13231000       4.40786200       1.27045000       2.62604800       4.36443155       1.43323206       2.93461895
54
Lattice="8.579999685 0.0 0.0 0.0 8.579999685 0.0 0.0 0.0 8.5799996" Properties=species:S:1:pos:R:3:REF_forces:R:3:MACE_forces:R:3 config_type=Fe34B10Si10 REF_energy=-354.71875992 MACE_energy=-355.3568745253723 pbc="T T T"
Fe       0.43313000       1.19321000       2.96848000       1.47291300       2.99028000       0.61180900       1.46815395       2.93023112       0.32333351
Fe       0.91365000       1.12516000       8.09995000       2.76260400      -2.00335600       1.20968300       2.41589183      -1.97969536       1.07040324
Fe       1.17142000       2.67870000       5.23446000      -1.90323000       6.04651700       0.58026800      -1.75145651       6.11661748       0.42011181
Fe       0.60772000       3.85484000       0.87278000       2.66909500       4.89444800       4.53699300       2.54571315       4.99155965       4.18628386
Fe       1.41565000       3.44858000       3.01161000      -0.29549500       2.03729500      -0.74017400      -0.08944483       1.92302374      -0.68142375
Fe       0.04226000       2.91249000       8.09734000      -3.39897200      -2.84207300      -2.69442200      -2.79502738      -2.88885035      -2.37135319
Fe       1.33282000       7.09057000       5.22634000      -0.45239700      -1.35392500       0.92503500      -0.22561084      -1.51217349       0.96966387
Fe       2.06045000       7.92051000       0.98063000      -3.11321000      -0.30108300      -2.49280600      -3.15082738      -0.40956136      -2.41033081
Fe       2.03627000       8.24295000       3.50701000      -1.42216600       4.38122900       0.88517600      -1.47589544       4.12625237       0.65790350
Fe       0.01253000       8.02686000       7.00667000       2.58679700       0.98610200     -11.80201700       2.44371782       0.91499110     -11.87548378
Fe       3.00353000       0.57289000       6.13981000      -1.03922300       0.18357300       0.93137300      -0.79954031       0.11370082       1.01323039
Fe       3.69949000       2.65196000       7.51811000       2.76433000      -4.34399200      -3.80269000       2.59593497      -4.11340436      -3.68006136
Fe       2.94478000       6.44154000       3.03987000       7.21319500      -3.66655800      -1.17614100       7.02584068      -3.46686066      -1.01948260
Fe       2.94309000       5.75189000       6.64956000      -6.24071800      -0.74678300       3.86021800      -6.47216657      -0.64781847       3.87434860
Fe       3.71160000       8.39321000       1.86324000       2.24845700      -0.43546600       0.28887200       2.22214028      -0.15880090       0.69029416
Fe       4.07810000       8.43915000       4.32840000       2.88035800       1.28304800      -0.49181300       2.85818190       1.36706543      -0.76173059
Fe       5.57499000       0.73262000       6.31633000      -3.12774100      -1.68249800      -0.98058200      -2.83928360      -1.68075045      -0.90508226
Fe       4.70712000       1.94493000       1.65492000      -2.04675700       4.97917500      -3.67899600      -2.14117583       4.76844098      -3.47462464
Fe       4.73401000       4.18392000       1.24748000       0.71501700       1.80608500      -0.06999200       0.70992848       2.02296199      -0.10541309
Fe       4.56687000       4.22266000       4.39618000       0.73801700       3.32591500      -2.10569900       0.50000084       3.16180851      -2.19223579
Fe       4.51224000       4.61167000       7.05684000       2.53211900      -0.41024200       0.53825400       2.97619797      -0.75315874       0.48786505
Fe       6.32808000       6.81945000       4.24288000      -3.20445400      -0.33519400      -1.28892300      -2.79792465      -0.24423630      -1.10609028
Fe       6.22240000       7.17309000       0.16230000      -3.30904600      -2.75215800       1.90373500      -3.51110328      -3.03622593       2.08171489
Fe       4.54224000       7.44382000       7.03838000       0.17895600      -5.02037800      -8.74618400       0.28425466      -5.24120587      -8.92929547
Fe       4.73272000       8.55832000       8.35561000      -0.10588400       8.96287400       6.54083400      -0.20054609       9.46580960       6.20917865
Fe       7.67285000       2.82429000       2.17742000      -2.12886900      -0.76272600      -2.06587500      -2.06616256      -0.82267923      -1.98347048
Fe       6.74071000       1.77406000       4.33655000       0.47479500       0.50025500      -0.42349800       0.07709150       0.44960368      -0.47326072
Fe       7.16362000       1.61896000       6.68131000       5.11373900       1.83737400       0.70818800       4.77174758       1.68057384       0.63805567
Fe       6.73653000       4.13840000       7.84564000       0.19062300       0.32905600       3.59274800       0.11885103       0.49651683       3.63796213
Fe       6.61248000       5.35948000       2.44590000       0.96755600      -0.77403900      -0.47053600       0.84346962      -0.67388573      -0.50597361
Fe       8.39074000       4.95678000       4.82580000       0.50677700       3.21370700       1.22596300       0.60326313       3.11116884       1.09387524
Fe       6.62275000       6.29700000       6.29237000       0.91106900      -0.58785400       1.74696000       0.80032831      -0.47228448       1.60627727
Fe       8.00875000       8.14674000       2.12563000      -1.25903800      -1.94608200      -3.37077000      -0.88637757      -1.94223157      -3.39319300
Fe       7.96861000       8.10559000       4.08816000       1.24434400       0.03207600       4.40361200       0.70151090      -0.00034098       4.50801627
B        3.14587000       1.61638000       2.59818000      -3.96044800      -1.57388800      -2.24367700      -3.97176131      -1.49027299      -2.03020036
B        4.07212000       1.93087000       3.78701000       0.55534200       0.12762300      -3.25123200       0.44505813       0.12896642      -3.20169764
B        2.24412000       1.90783000       4.05913000      -1.80380000      -9.70850100      -5.48536600      -1.84521590      -9.92835576      -5.58559782
B        2.90130000       3.06657000       4.45062000       2.48509300       7.60479000      -1.50334300       2.91488717       7.30761937      -1.51875898
B        2.82587000       3.80138000       5.80651000       0.21675600       2.27927400       3.92227300       0.32973491       2.12891514       3.86130021
B        2.60929000       5.04297000       1.66311000       0.12617300      -0.77075900      -0.46531300      -0.06522428      -0.76436643      -0.38727831
B        2.47198000       4.95014000       4.32601000      -0.76752800      -1.31946700       0.35153300      -0.81322945      -1.21193898       0.33718146
B        2.73354000       7.81887000       7.66829000      -1.47869400      -0.15377200       0.00458000      -1.52786920      -0.17496882       0.18670194
B        5.68071000       2.28134000       7.79544000      -0.95924500       0.41857400       1.11780500      -0.93426446       0.34244646       1.05713239
B        7.77536000       3.70665000       3.76574000      -0.44877700      -1.48394500      -0.38974400      -0.55489581      -1.40202153      -0.03862481
Si       0.79518000       0.92195000       5.77957000      -1.66645900      -4.94136200      -1.10925300      -1.62237819      -5.10570066      -0.94666643
Si       0.88055000       4.20706000       6.73551000       1.15626000       3.58432200      -0.32349000       1.10148731       3.76986820      -0.20532282
Si       1.15025000       6.44729000       2.43826000      -7.77651300      -1.83655100      -1.54918700      -7.90581965      -1.73211358      -1.71924969
Si       2.82820000       3.29548000       0.50208000      -4.05499500       1.58525200       5.32597100      -4.12935464       1.47474186       5.26976072
Si       4.14031000       6.38272000       0.30005000      -2.16949800      -2.44928300       2.57761000      -2.21817090      -2.49679004       2.55784170
Si       3.68345000       6.43010000       5.01209000       3.98893100       0.98565200      -2.13453700       3.84885810       1.17956619      -2.07246645
Si       5.73751000       0.59059000       2.53265000       5.08228400      -4.90021500       2.23852200       5.15144367      -4.91885203       2.49430813
Si       4.51163000       2.47994000       5.36819000       2.60737700      -2.86786400       7.12589500       2.76671845      -2.68132655       6.99119027
Si       6.43436000       3.75222000       5.86206000       1.38008400       0.66155200      -3.64612400       1.57922254       0.78601749      -3.76441161
Si       8.06432000       7.52318000       8.55473000       2.36409700      -3.06603600      11.34847700       2.69109775      -2.80759551      11.11484540
18
Lattice="6.5 0.0 0.0 0.0 6.5 0.0 0.0 0.0 6.5" Properties=species:S:1:pos:R:3:REF_forces:R:3:MACE_forces:R:3 config_type=Fe12B3Si3 REF_energy=-113.87843945 MACE_energy=-113.05271652435309 pbc="T T T"
Fe       5.40234000       5.43492000       1.53729000      -1.39532100       2.04028400       0.71142300      -1.10986935       1.94263924       0.69483223
Fe       2.09750000       2.10361000       0.54730000       2.35673700      -0.33103000       1.27254800       2.51773132      -0.07960932       1.13303223
Fe       2.84360000       1.73250000       3.81271000       2.28004000      -1.18251600      -0.27344700       2.18166818      -1.01026935      -0.16754419
Fe       0.77541000       4.93717000       1.04317000       1.56096300      -3.83372900       1.76362000       1.38132336      -3.57162532       1.49402359
Fe       0.07665000       3.70431000       3.74351000      -0.75952900      -0.39175400      -2.23189700      -1.04791986      -0.44182898      -2.28786507
Fe       4.77171000       3.58949000       4.78220000      -1.99219600      -4.62409700       0.48420500      -1.76749739      -4.57240448       0.41294840
Fe       4.12430000       1.49867000       1.46476000       0.29771700      -2.38794700       0.28396300       0.31364410      -2.65387771       0.10756795
Fe       0.95387000       5.17746000       5.28728000      -0.57085000      -0.50160400      -1.80733600      -0.95292510      -0.70965891      -1.30001601
Fe       1.93602000       3.09888000       2.36598000      -0.08855100       0.43128300      -0.27209000      -0.15968737       0.59194582      -0.42742697
Fe       5.69037000       1.28357000       4.20026000      -0.40866000      -0.49067900       0.18976600      -0.71111975      -0.26880434       0.21392589
Fe       1.94321000       2.86141000       5.39871000      -0.55906500       0.73218900      -1.80086600      -0.57395699       0.77000369      -1.87208245
Fe       4.33122000       5.38124000       5.25469000      -0.73272900       4.56545400       1.52017900      -0.66959242       4.37878353       1.53333223
B        0.37598000       1.64060000       1.21420000      -3.21263000       2.85095800       0.76078000      -3.07063386       2.71659814       0.89674635
B        1.88110000       4.04794000       3.96741000       2.48956600       2.45119300      -0.32261600       2.69225683       2.31157318      -0.34951356
B        3.63878000       0.94242000       5.41981000      -0.01444500       0.67937600       0.95779200       0.15833523       0.82787770       1.07909087
Si       1.19380000       0.26963000       0.19686000       0.54051800       0.24528300      -1.93219100       0.68291114       0.00329707      -1.91434575
Si       4.57825000       3.47658000       1.16117000       0.15934200       1.26766700      -0.81102600       0.19673680       1.43747047      -0.72783850
Si       1.09558000       0.76720000       2.75124000       0.04909300      -1.52033200       1.50719200      -0.06140487      -1.67211041       1.48113276
54
Lattice="8.579999685 0.0 0.0 0.0 8.579999685 0.0 0.0 0.0 8.5799996" Properties=species:S:1:pos:R:3:REF_forces:R:3:MACE_forces:R:3 config_type=Fe34B10Si10 REF_energy=-356.0869274 MACE_energy=-356.90092567290236 pbc="T T T"
Fe       0.92877000       1.08311000       2.12831000      -0.53214900      -1.15432400       0.53007800      -0.68748898      -1.23567507       0.40947136
Fe       1.12794000       0.45096000       7.37327000      -2.86345100       2.18226700       1.45805300      -2.86115199       2.00701495       1.46234622
Fe       0.91289000       3.61082000       1.96264000      -1.66570100       0.50807500      -4.76654600      -1.66040009       0.28732623      -4.76725246
Fe       0.97242000       3.25012000       3.83975000      -0.85629000      -1.23507100      -0.91491200      -1.07133341      -1.19426127      -0.35747841
Fe       1.43574000       3.84332000       5.84621000      -1.94378300      -0.72872400       4.94145300      -2.06891067      -0.53393599       4.68353742
Fe       0.45897000       5.99881000       1.32384000       1.86679900       1.45939200      -0.33976700       1.64596193       1.57934620      -0.17496597
Fe       0.05714000       6.25044000       6.01250000       0.66851500      -0.88142700       1.67028200       0.74527885      -0.75336735       1.78586767
Fe       1.87526000       7.05991000       7.27744000      -5.90957000       6.81146600       5.95768600      -5.76609336       7.20065951       5.93871853
Fe       4.21220000       0.80536000       3.81626000       0.44958900      -1.97725700       0.54591300       0.55594178      -1.90891911       0.44307795
Fe       2.64196000       0.75311000       5.88605000       0.80305000      -0.92688600      -1.50973400       0.59570862      -1.09174303      -1.57166565
Fe       2.51735000       4.27963000       7.86001000      -0.17185400       2.88247300       0.00075600       0.01108264       2.96381469       0.34166660
Fe       2.46175000       4.76211000       4.38544000       2.27245000       6.36429500      -0.60000700       2.22607631       6.34546823      -0.56491251
Fe       3.99132000       4.46692000       6.09268000      -0.21521200      -1.96607600      -0.25853400      -0.22498869      -2.14464482      -0.16720077
Fe       4.03283000       6.20484000       2.50717000       0.32509400      -1.83048700       1.07686200       0.43814555      -1.73404537       1.16320108
Fe       2.62183000       8.12097000       1.25125000      -5.45108600      -1.04608100      -0.88869000      -5.55508185      -1.04649293      -0.56466645
Fe       2.34208000       7.49949000       3.33705000      -1.45221900       0.10179900       1.96325000      -1.26481698       0.22262550       1.58344922
Fe       4.67554000       0.98699000       8.35162000       1.97529500       0.95938300       0.07305200       1.74125834       0.79532638       0.41032909
Fe       4.68615000       2.28426000       1.60336000       6.03713100       4.39249100       1.56082500       6.19350023       4.35044766       1.16272085
Fe       4.95897000       4.28949000       0.91503000       1.24258400       3.77490300      -1.07876200       0.67997306       3.45420639      -1.24688119
Fe       5.62605000       3.84953000       3.25301000      -4.56775200       3.43217100       2.09526400      -4.60851392       3.49490129       1.92255912
Fe       5.63153000       5.70233000       4.67966000       0.04558900       0.36352900      -0.74034800       0.07115737      -0.06619525      -0.60155763
Fe       5.00954000       6.14620000       6.89198000       4.51113600      -2.60361300       1.43664400       4.53867073      -2.41089985       1.37711234
Fe       5.34723000       7.32984000       0.56425000       3.41130600      -7.55812200      -7.44238600       3.33770221      -7.02470017      -7.24093742
Fe       4.57141000       8.20633000       1.67615000      -2.51651100       6.57056000       9.11650700      -2.61259748       6.15453821       8.68552733
Fe       5.67084000       7.83697000       6.02451000      -0.02983000       3.57151200       0.33120700      -0.09456400       3.70424937       0.40130482
Fe       7.65837000       1.05332000       0.64336000       1.95813700       2.93603900      -3.62028800       1.88770308       2.97199382      -3.50604725
Fe       7.23579000       1.49494000       3.62009000       0.88838800      -1.50203300       3.00240400       0.97126350      -1.59832454       3.05302182
Fe       6.96409000       1.59543000       6.70415000       0.40175100      -2.57633900      -0.54943900       0.52890494      -2.53066378      -0.51680025
Fe       6.97946000       3.05325000       2.27831000       3.01329100      -2.85779700      -7.80747400       2.47464116      -2.97067850      -7.21678768
Fe       7.05854000       3.62734000       7.13255000       0.94483300       2.42104600       2.56329500       1.03967449       2.44634695       2.48919603
Fe       7.47490000       4.49325000       0.92243000      -3.13561000       0.06366500       0.11142200      -2.92500015       0.42302833      -0.33258185
Fe       7.76499000       5.40883000       4.05655000       3.42051700      -2.49950500       1.10150300       3.49973202      -2.67093773       1.14435484
Fe       6.91686000       6.16423000       2.38917000      -4.34160700       0.52717700      -3.24358900      -4.30233433       0.64224403      -3.17727617
Fe       7.31773000       7.39473000       4.73130000      -1.41907300       3.06948200       1.38572900      -1.41324965       3.07541908       1.32636774
B        1.63947000       5.44017000       2.85377000      -1.37965300       1.67099600      -0.34434500      -1.45574896       1.77104385      -0.60950039
B        3.47444000       1.29905000       1.69513000      -6.04542900      -7.46227000      -1.52467000      -5.89955095      -7.25951848      -1.18528658
B        2.31673000       1.42955000       3.77944000      -1.85652800      -2.14982900       3.21956500      -1.76080900      -1.97533583       3.48969845
B        3.17088000       0.01260000       8.16689000      -2.14308300      -0.12737100      -3.63430700      -2.06873545       0.09039051      -3.59248924
B        2.48887000       2.23189000       2.44876000      -1.30373000       3.96631200      -0.94871100      -0.88066866       3.88835821      -1.25901372
B        3.55016000       3.21990000       0.17024000       2.13469500      -3.52588700       0.23974700       2.14891504      -3.43139389       0.21859358
B        3.12966000       3.07291000       4.24572000      -6.99085300       0.34377600      -0.16579100      -7.17028233       0.07183113      -0.30963070
B        2.38358000       5.95301000       6.34325000       2.25901800      -8.76611800      -6.31465800       2.24804546      -9.20746163      -6.54499453
B        4.46260000       2.62992000       4.23823000       7.08507900      -1.75449200       0.40993300       7.22983687      -1.74244777       0.46595882
B        7.51183000       3.59374000       3.85724000       1.49621300      -1.20378300       3.39561400       1.51215181      -1.10837867       3.29884713
Si       0.50050000       1.66927000       5.10425000      -1.02554400      -2.67263500       2.61432900      -0.84575011      -2.93054072       2.52201009
Si       0.41923000       4.50138000       8.15701000       0.82744200      -0.47721100      -2.57541600       1.06270851      -0.47694991      -2.80312439
Si       2.90131000       4.25049000       1.93860000       2.71957100       0.04497600      -0.88170100       2.93318485      -0.05168149      -1.12058945
Si       3.74353000       6.85388000       5.19884000      -1.20766000       1.80214700      -2.20114300      -1.09018124       1.96754340      -2.18986773
Si       3.54209000       6.47938000       8.21357000      -0.45014500      -1.75854100       4.24377300      -0.56654371      -2.00701926       4.43728285
Si       4.55252000       1.74669000       6.40118000       0.28733400       0.20348600      -1.69136000       0.28381222       0.18316392      -1.70996614
Si       5.87020000       3.30923000       5.41310000       1.93974000       0.55942400      -1.14043100       1.57101421       0.72322268      -1.15088659
Si       6.68392000       0.09389000       2.07850000      -2.78148600      -1.30329400       2.70552900      -2.47222454      -1.21421941       2.83902230
Si       7.30980000       7.36953000       0.08595000       4.18267400      -0.22507900      -1.67891000       4.12536392      -0.50293384      -1.67968918
Si       8.41387000       7.50606000       2.97540000       5.08859000       1.78741200      -0.88875800       5.02961081       2.00885514      -0.89319294
54
Lattice="8.579999685 0.0 0.0 0.0 8.579999685 0.0 0.0 0.0 8.5799996" Properties=species:S:1:pos:R:3:REF_forces:R:3:MACE_forces:R:3 config_type=Fe34B10Si10 REF_energy=-359.84864784 MACE_energy=-360.3230129184484 pbc="T T T"
Fe       0.39531000       2.37288000       0.87042000       3.27925500       2.43832800      -1.60261100       3.21327942       2.62129221      -1.75275838
Fe       0.75383000       1.65209000       3.11094000       1.30783500      -0.34615400      -0.09267000       1.26846746      -0.79232792       0.21293473
Fe       1.33201000       3.79282000       7.26231000      -2.40668100      -1.18131200       0.32245500      -2.52521826      -1.05678101       0.19320226
Fe       0.64436000       4.41396000       2.97573000       2.42004200      -2.26182600       0.38963900       2.47447922      -2.06077357       0.22454175
Fe       0.14751000       6.42079000       3.51005000      -3.07002100       1.32407200      -2.30638400      -3.11369887       1.37204701      -2.51821630