54
Lattice="8.579999685 0.0 0.0 0.0 8.579999685 0.0 0.0 0.0 8.5799996" Properties=species:S:1:pos:R:3:REF_forces:R:3:MACE_forces:R:3 config_type=Fe34B10Si10 REF_energy=-352.89092233 MACE_energy=-353.333658590994 pbc="T T T"
Fe       1.46495000       0.71583000       1.12880000       3.73230100      -3.41607500      -3.76209700       3.68876688      -3.49459455      -3.54545615
Fe       0.56244000       2.07917000       1.96452000      -3.31290700       4.06628900       2.54508600      -3.23001777       3.95865144       2.33668785
Fe       0.86636000       2.12990000       5.00906000     -10.85567700      -2.87102900      12.20968700     -10.93478486      -2.95813877      12.21440312
Fe       0.24697000       2.61233000       7.83061000      -0.37811800      -2.03816900      -0.08744800      -0.41849939      -1.90113225       0.08025027
Fe       0.35437000       4.66395000       8.16447000      -1.30300600       1.62250000       0.84662400      -1.32848120       1.61465220       0.77640774
Fe       0.83543000       8.00840000       3.01492000       5.54921000      -2.55787300       0.52513800       5.70654114      -2.53262452       0.39269470
Fe       2.03952000       7.84431000       6.63062000      -4.28706100       1.82495200      -1.68802900      -4.07640273       1.96773038      -1.63278449
Fe       3.34318000       0.11090000       2.96052000      -0.46571400      -0.35056300       0.37864800      -0.51356000      -0.22260030       0.47546223
Fe       3.26317000       2.11539000       1.48699000      -3.47884800      -0.03222100       0.61542300      -3.41563834      -0.30590963       0.16418056
Fe       4.14313000       2.75755000       3.31065000      -0.71378000      -2.73118300       1.93004800      -0.61811436      -2.41819794       1.86788267
Fe       2.55051000       2.67374000       7.19710000      -2.55215900      -0.93589000       1.77261600      -2.30284899      -1.13848031       1.72116497
Fe       3.61327000       2.86500000       5.46497000       1.55763200       0.20514300      -0.56676300       1.47115153       0.28196031      -0.28823246
Fe       2.62400000       4.72550000       1.39174000      -1.08585200      -1.19598700       0.59645400      -1.35167908      -1.00258314       0.69545691
Fe       2.20317000       5.21693000       3.87451000      -3.92870900      -4.38103900      -4.92199500      -3.85599217      -4.37555001      -4.96639151
Fe       3.93082000       4.37819000       8.08226000       1.07616800       0.44807800      -0.99700400       1.02331181       0.30321968      -0.92715865
Fe       2.44961000       7.01753000       1.08943000       0.32119000      -1.55635000       3.27006500       0.43886027      -1.62646684       3.26342790
Fe       3.02500000       6.15780000       5.08193000      -1.08486800       1.64126100       3.95415400      -0.63418584       1.63104961       4.03445623
Fe       5.77712000       0.44616000       0.16142000      -2.43333700       0.07175000       4.13474700      -2.47567699       0.41115828       4.22249699
Fe       5.66964000       0.14892000       2.95259000      -3.67617900       1.90971100       0.12919700      -3.66303270       1.65398170       0.32214176
Fe       5.39484000       2.66317000       1.55162000       4.08183700      -3.39937100       3.88213200       4.03760299      -3.65120395       4.03974230
Fe       5.91309000       3.40423000       8.31953000       8.90196200       5.48305700      -2.72562400       8.71373048       5.45164534      -2.71138807
Fe       4.96126000       4.63305000       3.41410000      -3.60269200      -2.00302700       2.25051900      -3.72840891      -2.22017955       2.38743857
Fe       5.11347000       6.81217000       1.78872000      -0.87770500       0.06714300      -1.61156800      -0.70369362       0.07170206      -1.57531869
Fe       5.00950000       6.45991000       8.24507000      -2.30619500      -0.19808200      -1.52355700      -2.28925402       0.01142853      -1.67172539
Fe       4.64263000       7.71190000       5.75084000       2.50156800       4.23919200      -1.55456800       2.60764391       4.27637901      -1.59113393
Fe       7.32285000       0.33022000       5.03535000      -0.99210900      -0.59745100       4.73628300      -1.02600697      -0.38037004       4.80677780
Fe       6.75330000       1.32958000       7.05071000       0.53851300       2.01290400       0.36400700       0.55998332       1.82648041       0.29067680
Fe       6.82686000       2.53028000       3.66692000      -0.08907100      -0.12987400      -0.26318300      -0.05914904      -0.20897966      -0.24997335
Fe       6.83617000       5.56618000       0.59386000       1.74434500       1.47371700      -3.32847200       1.81381612       1.63370298      -3.41906063
Fe       8.27091000       4.29855000       2.87718000       3.23308900       0.33980500       1.37352500       3.20561478       0.22083737       1.32243174
Fe       6.58774000       4.90718000       4.97515000      -1.87594500       0.58060600      -0.05143700      -2.12487918       0.62211304      -0.29678029
Fe       6.86773000       6.79187000       3.27473000       1.52763600      -2.76254700       0.67579100       1.39703312      -2.41967229       0.39245817
Fe       8.09083000       8.29691000       0.84396000      -4.18921500      -1.95965200       9.56442300      -4.19017214      -2.33137982       9.67790501
Fe       6.62133000       7.67903000       7.47205000      -3.65417600       1.51975600      -3.32990400      -3.89247779       1.22559691      -3.51894965
B        3.45077000       6.81738000       6.75435000       2.04131500      -2.79808300       3.80923700       1.91126977      -2.70605125       3.94430697
B        4.67436000       1.10514000       4.73414000       0.75036200       0.95391600      -0.52852700       0.82738614       0.87608339      -0.46753670
B        6.18153000       2.20088000       5.47737000      -4.49435700      -3.20609500      -2.27763700      -4.71361397      -3.15042710      -2.47730634
B        5.08133000       4.10197000       6.35983000       0.35152900       0.25548900      -0.65354500       0.57790999       0.33261291      -0.62948525
B        4.48663000       4.29393000       1.40792000      -0.27448100       1.04603100       0.21283300      -0.26644651       1.21891090       0.15412540
B        4.96286000       5.88068000       6.14703000       0.60492000      -1.85032800       0.29314600       0.62876061      -1.92604102       0.12509696
B        8.17242000       5.65216000       5.55863000       1.00443800       0.65677900      -0.69824300       1.02583073       0.73223771      -0.33482030
B        7.98743000       6.92663000       6.60530000       5.86774900       2.58695800      -4.05103700       5.84446033       2.49051698      -3.73711013
B        7.10769000       5.72812000       6.91109000      -2.33709700      -3.34606800       1.34633400      -2.32667998      -3.50656472       1.29838557
B        7.81665000       6.81498000       8.33858000       5.04350100      -2.41043400       0.97359300       5.16880079      -2.41272050       0.75276877
Si       0.06983000       0.14925000       7.74742000       4.12649000       2.60901100      -8.87608100       3.95934313       2.64574140      -8.87096255
Si       1.93337000       2.41223000       3.74634000      10.14534600       2.98113100     -12.18526000      10.23158692       3.10979748     -12.01359859
Si       0.75978000       6.02813000       1.69309000      -4.13401100      -0.74920300       1.02787300      -4.12800672      -0.86641092       1.02892259
Si       2.22023000       5.10313000       7.16329000      -1.58663400       1.19675500      -1.89967800      -1.78317028       1.15911601      -1.93185899
Si       3.27754000       8.17117000       8.35443000       4.04667900       4.58101600      -2.24829100       3.90823593       4.54414011      -2.46384809
Si       4.48145000       2.18337000       8.34202000      -5.72220500      -5.96162700      -4.99603400      -5.48810236      -5.82317815      -5.14701585
Si       6.36439000       4.54151000       2.12641000       2.28764700      -2.33178900       1.39384200       2.59359960      -2.23746691       1.27198196
Si       4.52267000       6.51460000       3.75633000       0.42177200       5.22743800       1.25328700       0.14605051       5.37614377       1.39728643
Si       7.68278000       0.22257000       3.11016000      -0.17295300       4.89916800      -3.86478000      -0.30290407       4.77766591      -3.98252982
Si       7.35363000       3.38410000       6.13231000       4.40786200       1.27045000       2.62604800       4.35458921       1.39166827       2.99300694
54
Lattice="8.579999685 0.0 0.0 0.0 8.579999685 0.0 0.0 0.0 8.5799996" Properties=species:S:1:pos:R:3:REF_forces:R:3:MACE_forces:R:3 config_type=Fe34B10Si10 REF_energy=-354.71875992 MACE_energy=-355.3951030617471 pbc="T T T"
Fe       0.43313000       1.19321000       2.96848000       1.47291300       2.99028000       0.61180900       1.62254368       2.98391210       0.32256251
Fe       0.91365000       1.12516000       8.09995000       2.76260400      -2.00335600       1.20968300       2.56527617      -2.13706701       1.10979083
Fe       1.17142000       2.67870000       5.23446000      -1.90323000       6.04651700       0.58026800      -1.69550567       6.29094257       0.61543837
Fe       0.60772000       3.85484000       0.87278000       2.66909500       4.89444800       4.53699300       2.65315665       5.11284232       4.25218730
Fe       1.41565000       3.44858000       3.01161000      -0.29549500       2.03729500      -0.74017400      -0.27461578       1.93557510      -0.67309135
Fe       0.04226000       2.91249000       8.09734000      -3.39897200      -2.84207300      -2.69442200      -3.07944583      -2.75433841      -2.48341531
Fe       1.33282000       7.09057000       5.22634000      -0.45239700      -1.35392500       0.92503500      -0.22116259      -1.49870777       0.81694008
Fe       2.06045000       7.92051000       0.98063000      -3.11321000      -0.30108300      -2.49280600      -3.23591813      -0.53615729      -2.33390043
Fe       2.03627000       8.24295000       3.50701000      -1.42216600       4.38122900       0.88517600      -1.54349749       4.19810357       0.56072817
Fe       0.01253000       8.02686000       7.00667000       2.58679700       0.98610200     -11.80201700       2.51088333       0.82550785     -11.91305491
Fe       3.00353000       0.57289000       6.13981000      -1.03922300       0.18357300       0.93137300      -0.71634076      -0.02026573       1.08528158
Fe       3.69949000       2.65196000       7.51811000       2.76433000      -4.34399200      -3.80269000       2.57005927      -4.15041337      -3.66762152
Fe       2.94478000       6.44154000       3.03987000       7.21319500      -3.66655800      -1.17614100       7.13104556      -3.39499609      -0.93567447
Fe       2.94309000       5.75189000       6.64956000      -6.24071800      -0.74678300       3.86021800      -6.58495840      -0.75519588       3.88925710
Fe       3.71160000       8.39321000       1.86324000       2.24845700      -0.43546600       0.28887200       2.36774547      -0.25811278       0.52933906
Fe       4.07810000       8.43915000       4.32840000       2.88035800       1.28304800      -0.49181300       2.94027372       1.48084623      -0.80283837
Fe       5.57499000       0.73262000       6.31633000      -3.12774100      -1.68249800      -0.98058200      -2.96518002      -1.72937655      -1.03600712
Fe       4.70712000       1.94493000       1.65492000      -2.04675700       4.97917500      -3.67899600      -2.13829741       4.83951199      -3.40509431
Fe       4.73401000       4.18392000       1.24748000       0.71501700       1.80608500      -0.06999200       0.70643577       1.99663527      -0.14857960
Fe       4.56687000       4.22266000       4.39618000       0.73801700       3.32591500      -2.10569900       0.60048005       3.49255195      -2.30324573
Fe       4.51224000       4.61167000       7.05684000       2.53211900      -0.41024200       0.53825400       2.99064490      -0.68864533       0.64440904
Fe       6.32808000       6.81945000       4.24288000      -3.20445400      -0.33519400      -1.28892300      -2.85268346      -0.29299990      -1.08149459
Fe       6.22240000       7.17309000       0.16230000      -3.30904600      -2.75215800       1.90373500      -3.54089286      -2.98170843       1.93937625
Fe       4.54224000       7.44382000       7.03838000       0.17895600      -5.02037800      -8.74618400       0.15211978      -5.32375385      -8.85720336
Fe       4.73272000       8.55832000       8.35561000      -0.10588400       8.96287400       6.54083400      -0.24913935       9.45215112       6.39138737
Fe       7.67285000       2.82429000       2.17742000      -2.12886900      -0.76272600      -2.06587500      -2.12178081      -0.70347547      -1.91745607
Fe       6.74071000       1.77406000       4.33655000       0.47479500       0.50025500      -0.42349800       0.13084863       0.52367221      -0.55193038
Fe       7.16362000       1.61896000       6.68131000       5.11373900       1.83737400       0.70818800       4.93925872       1.65426273       0.64031234
Fe       6.73653000       4.13840000       7.84564000       0.19062300       0.32905600       3.59274800       0.35347186       0.46317120       3.68449519
Fe       6.61248000       5.35948000       2.44590000       0.96755600      -0.77403900      -0.47053600       0.90584394      -0.76204172      -0.39373672
Fe       8.39074000       4.95678000       4.82580000       0.50677700       3.21370700       1.22596300       0.55539574       3.14018475       1.08010869
Fe       6.62275000       6.29700000       6.29237000       0.91106900      -0.58785400       1.74696000       0.85122414      -0.46636253       1.52298769
Fe       8.00875000       8.14674000       2.12563000      -1.25903800      -1.94608200      -3.37077000      -0.86762956      -1.96226774      -3.53722246
Fe       7.96861000       8.10559000       4.08816000       1.24434400       0.03207600       4.40361200       0.67363506      -0.04110258       4.63318344
B        3.14587000       1.61638000       2.59818000      -3.96044800      -1.57388800      -2.24367700      -4.10266446      -1.54760471      -2.21389161
B        4.07212000       1.93087000       3.78701000       0.55534200       0.12762300      -3.25123200       0.40071425      -0.03398172      -3.36508279
B        2.24412000       1.90783000       4.05913000      -1.80380000      -9.70850100      -5.48536600      -1.84842220      -9.89172343      -5.58295239
B        2.90130000       3.06657000       4.45062000       2.48509300       7.60479000      -1.50334300       2.78576282       7.10564233      -1.38191168
B        2.82587000       3.80138000       5.80651000       0.21675600       2.27927400       3.92227300       0.26457201       2.13460888       3.95834780
B        2.60929000       5.04297000       1.66311000       0.12617300      -0.77075900      -0.46531300      -0.03274173      -0.94961733      -0.47110339
B        2.47198000       4.95014000       4.32601000      -0.76752800      -1.31946700       0.35153300      -0.91403268      -1.13693363       0.34672981
B        2.73354000       7.81887000       7.66829000      -1.47869400      -0.15377200       0.00458000      -1.42158942      -0.13187566       0.09730029
B        5.68071000       2.28134000       7.79544000      -0.95924500       0.41857400       1.11780500      -1.05400139       0.37140451       1.11634856
B        7.77536000       3.70665000       3.76574000      -0.44877700      -1.48394500      -0.38974400      -0.48868612      -1.38404362      -0.18575610
Si       0.79518000       0.92195000       5.77957000      -1.66645900      -4.94136200      -1.10925300      -1.65043908      -5.07739445      -0.92278949
Si       0.88055000       4.20706000       6.73551000       1.15626000       3.58432200      -0.32349000       1.14020196       3.69815236      -0.29332901
Si       1.15025000       6.44729000       2.43826000      -7.77651300      -1.83655100      -1.54918700      -7.84029112      -1.66720299      -1.75246338
Si       2.82820000       3.29548000       0.50208000      -4.05499500       1.58525200       5.32597100      -4.13029523       1.39273567       5.17919521
Si       4.14031000       6.38272000       0.30005000      -2.16949800      -2.44928300       2.57761000      -2.30961831      -2.36915726       2.44612139
Si       3.68345000       6.43010000       5.01209000       3.98893100       0.98565200      -2.13453700       3.92391186       1.20519722      -2.03907929
Si       5.73751000       0.59059000       2.53265000       5.08228400      -4.90021500       2.23852200       5.19370161      -4.99513616       2.53030140
Si       4.51163000       2.47994000       5.36819000       2.60737700      -2.86786400       7.12589500       2.73678143      -2.59490743       7.29579227
Si       6.43436000       3.75222000       5.86206000       1.38008400       0.66155200      -3.64612400       1.50326242       0.67942299      -3.78373059
Si       8.06432000       7.52318000       8.55473000       2.36409700      -3.06603600      11.34847700       2.71057905      -2.74046811      11.34573467
18
Lattice="6.5 0.0 0.0 0.0 6.5 0.0 0.0 0.0 6.5" Properties=species:S:1:pos:R:3:REF_forces:R:3:MACE_forces:R:3 config_type=Fe12B3Si3 REF_energy=-113.87843945 MACE_energy=-112.43512296672077 pbc="T T T"
Fe       5.40234000       5.43492000       1.53729000      -1.39532100       2.04028400       0.71142300      -1.17018882       2.05389304       0.79084512
Fe       2.09750000       2.10361000       0.54730000       2.35673700      -0.33103000       1.27254800       2.70440771      -0.25629560       1.38687117
Fe       2.84360000       1.73250000       3.81271000       2.28004000      -1.18251600      -0.27344700       2.25378976      -1.07032859      -0.32969408
Fe       0.77541000       4.93717000       1.04317000       1.56096300      -3.83372900       1.76362000       1.54651625      -3.65927621       1.57581570
Fe       0.07665000       3.70431000       3.74351000      -0.75952900      -0.39175400      -2.23189700      -0.88008369      -0.47260593      -2.35174257
Fe       4.77171000       3.58949000       4.78220000      -1.99219600      -4.62409700       0.48420500      -1.79944547      -4.54005802       0.44078991
Fe       4.12430000       1.49867000       1.46476000       0.29771700      -2.38794700       0.28396300       0.34977285      -2.68862972       0.15547173
Fe       0.95387000       5.17746000       5.28728000      -0.57085000      -0.50160400      -1.80733600      -0.83316706      -0.69049873      -1.37957184
Fe       1.93602000       3.09888000       2.36598000      -0.08855100       0.43128300      -0.27209000      -0.23368161       0.57202085      -0.37290609
Fe       5.69037000       1.28357000       4.20026000      -0.40866000      -0.49067900       0.18976600      -0.69858112      -0.36228519       0.24684048
Fe       1.94321000       2.86141000       5.39871000      -0.55906500       0.73218900      -1.80086600      -0.67667972       1.11311855      -2.19920958
Fe       4.33122000       5.38124000       5.25469000      -0.73272900       4.56545400       1.52017900      -0.62903545       4.48148177       1.59523147
B        0.37598000       1.64060000       1.21420000      -3.21263000       2.85095800       0.76078000      -3.18319413       2.76206696       1.02654022
B        1.88110000       4.04794000       3.96741000       2.48956600       2.45119300      -0.32261600       2.52172058       2.26237854      -0.29034022
B        3.63878000       0.94242000       5.41981000      -0.01444500       0.67937600       0.95779200       0.03529801       0.77632288       1.08078677
Si       1.19380000       0.26963000       0.19686000       0.54051800       0.24528300      -1.93219100       0.60873747      -0.00094478      -1.88799514
Si       4.57825000       3.47658000       1.16117000       0.15934200       1.26766700      -0.81102600       0.20490051       1.35554712      -0.75802833
Si       1.09558000       0.76720000       2.75124000       0.04909300      -1.52033200       1.50719200      -0.12108607      -1.63590694       1.27029527
54
Lattice="8.579999685 0.0 0.0 0.0 8.579999685 0.0 0.0 0.0 8.5799996" Properties=species:S:1:pos:R:3:REF_forces:R:3:MACE_forces:R:3 config_type=Fe34B10Si10 REF_energy=-356.0869274 MACE_energy=-357.13883979415215 pbc="T T T"
Fe       0.92877000       1.08311000       2.12831000      -0.53214900      -1.15432400       0.53007800      -0.62590571      -1.16451881       0.46154652
Fe       1.12794000       0.45096000       7.37327000      -2.86345100       2.18226700       1.45805300      -2.72827627       2.06193158       1.41339794
Fe       0.91289000       3.61082000       1.96264000      -1.66570100       0.50807500      -4.76654600      -1.57518738       0.12381995      -4.48922648
Fe       0.97242000       3.25012000       3.83975000      -0.85629000      -1.23507100      -0.91491200      -1.11443877      -1.05885913      -0.62479437
Fe       1.43574000       3.84332000       5.84621000      -1.94378300      -0.72872400       4.94145300      -2.05942425      -0.53826556       4.73867507
Fe       0.45897000       5.99881000       1.32384000       1.86679900       1.45939200      -0.33976700       1.67561797       1.46435822      -0.16221904
Fe       0.05714000       6.25044000       6.01250000       0.66851500      -0.88142700       1.67028200       0.61996391      -0.74836004       1.71752965
Fe       1.87526000       7.05991000       7.27744000      -5.90957000       6.81146600       5.95768600      -5.63147293       6.97501657       5.78264103
Fe       4.21220000       0.80536000       3.81626000       0.44958900      -1.97725700       0.54591300       0.53612986      -1.80922316       0.46197251
Fe       2.64196000       0.75311000       5.88605000       0.80305000      -0.92688600      -1.50973400       0.50028058      -1.08868203      -1.50372460
Fe       2.51735000       4.27963000       7.86001000      -0.17185400       2.88247300       0.00075600      -0.18103333       3.05946335       0.06486790
Fe       2.46175000       4.76211000       4.38544000       2.27245000       6.36429500      -0.60000700       2.30914480       6.36926339      -0.49145952
Fe       3.99132000       4.46692000       6.09268000      -0.21521200      -1.96607600      -0.25853400      -0.32297438      -2.19722165      -0.14974633
Fe       4.03283000       6.20484000       2.50717000       0.32509400      -1.83048700       1.07686200       0.36966972      -1.77161972       1.10228869
Fe       2.62183000       8.12097000       1.25125000      -5.45108600      -1.04608100      -0.88869000      -5.58635441      -1.09706252      -0.67250627
Fe       2.34208000       7.49949000       3.33705000      -1.45221900       0.10179900       1.96325000      -1.29871062       0.10684581       1.58778491
Fe       4.67554000       0.98699000       8.35162000       1.97529500       0.95938300       0.07305200       1.71932635       0.86669012       0.32283345
Fe       4.68615000       2.28426000       1.60336000       6.03713100       4.39249100       1.56082500       6.17312881       4.36460304       1.12475116
Fe       4.95897000       4.28949000       0.91503000       1.24258400       3.77490300      -1.07876200       0.79684634       3.55925147      -1.17438459
Fe       5.62605000       3.84953000       3.25301000      -4.56775200       3.43217100       2.09526400      -4.71221841       3.44021360       1.92959077
Fe       5.63153000       5.70233000       4.67966000       0.04558900       0.36352900      -0.74034800       0.10873232      -0.04562835      -0.58512188
Fe       5.00954000       6.14620000       6.89198000       4.51113600      -2.60361300       1.43664400       4.56497736      -2.55286737       1.29195945
Fe       5.34723000       7.32984000       0.56425000       3.41130600      -7.55812200      -7.44238600       3.23668297      -7.14392101      -7.12056575
Fe       4.57141000       8.20633000       1.67615000      -2.51651100       6.57056000       9.11650700      -2.34086181       6.16648798       8.82567593
Fe       5.67084000       7.83697000       6.02451000      -0.02983000       3.57151200       0.33120700      -0.05180763       3.67419771       0.45914966
Fe       7.65837000       1.05332000       0.64336000       1.95813700       2.93603900      -3.62028800       1.79711755       2.80132236      -3.41602888
Fe       7.23579000       1.49494000       3.62009000       0.88838800      -1.50203300       3.00240400       1.06864555      -1.50023169       3.00217214
Fe       6.96409000       1.59543000       6.70415000       0.40175100      -2.57633900      -0.54943900       0.43710860      -2.39282184      -0.47550099
Fe       6.97946000       3.05325000       2.27831000       3.01329100      -2.85779700      -7.80747400       2.65305650      -2.87786518      -7.41113205
Fe       7.05854000       3.62734000       7.13255000       0.94483300       2.42104600       2.56329500       0.99504361       2.28184791       2.35310728
Fe       7.47490000       4.49325000       0.92243000      -3.13561000       0.06366500       0.11142200      -2.80506471       0.40637718      -0.13072690
Fe       7.76499000       5.40883000       4.05655000       3.42051700      -2.49950500       1.10150300       3.61761003      -2.67249491       1.13454150
Fe       6.91686000       6.16423000       2.38917000      -4.34160700       0.52717700      -3.24358900      -4.37539143       0.86292461      -3.25577746
Fe       7.31773000       7.39473000       4.73130000      -1.41907300       3.06948200       1.38572900      -1.45428698       2.98231141       1.32482241
B        1.63947000       5.44017000       2.85377000      -1.37965300       1.67099600      -0.34434500      -1.42731499       1.75977830      -0.54369485
B        3.47444000       1.29905000       1.69513000      -6.04542900      -7.46227000      -1.52467000      -6.12647695      -6.98959561      -1.29891176
B        2.31673000       1.42955000       3.77944000      -1.85652800      -2.14982900       3.21956500      -1.83609019      -1.95244562       3.30402684
B        3.17088000       0.01260000       8.16689000      -2.14308300      -0.12737100      -3.63430700      -2.09622108       0.13869844      -3.46982647
B        2.48887000       2.23189000       2.44876000      -1.30373000       3.96631200      -0.94871100      -0.90211532       3.69027232      -1.24450626
B        3.55016000       3.21990000       0.17024000       2.13469500      -3.52588700       0.23974700       2.14665562      -3.58763484       0.38430388
B        3.12966000       3.07291000       4.24572000      -6.99085300       0.34377600      -0.16579100      -6.83792914       0.10011318      -0.17195069
B        2.38358000       5.95301000       6.34325000       2.25901800      -8.76611800      -6.31465800       2.11725396      -9.04966234      -6.41917560
B        4.46260000       2.62992000       4.23823000       7.08507900      -1.75449200       0.40993300       6.96126741      -1.82589745       0.34431074
B        7.51183000       3.59374000       3.85724000       1.49621300      -1.20378300       3.39561400       1.49567619      -1.01084109       3.22378416
Si       0.50050000       1.66927000       5.10425000      -1.02554400      -2.67263500       2.61432900      -0.78531883      -2.98077434       2.56254932
Si       0.41923000       4.50138000       8.15701000       0.82744200      -0.47721100      -2.57541600       1.09689847      -0.43976044      -2.75040281
Si       2.90131000       4.25049000       1.93860000       2.71957100       0.04497600      -0.88170100       2.69531316       0.00153455      -1.02772078
Si       3.74353000       6.85388000       5.19884000      -1.20766000       1.80214700      -2.20114300      -1.07632213       1.93702848      -2.07895395
Si       3.54209000       6.47938000       8.21357000      -0.45014500      -1.75854100       4.24377300      -0.57265699      -2.01867506       4.41684768
Si       4.55252000       1.74669000       6.40118000       0.28733400       0.20348600      -1.69136000       0.28378519       0.22109925      -1.64791795
Si       5.87020000       3.30923000       5.41310000       1.93974000       0.55942400      -1.14043100       1.68009895       0.82885492      -1.23357076
Si       6.68392000       0.09389000       2.07850000      -2.78148600      -1.30329400       2.70552900      -2.55661327      -1.24093472       2.85891488
Si       7.30980000       7.36953000       0.08595000       4.18267400      -0.22507900      -1.67891000       4.40431488      -0.37965341      -1.74311386
Si       8.41387000       7.50606000       2.97540000       5.08859000       1.78741200      -0.88875800       5.02012123       1.89121220      -0.90138466
54
Lattice="8.579999685 0.0 0.0 0.0 8.579999685 0.0 0.0 0.0 8.5799996" Properties=species:S:1:pos:R:3:REF_forces:R:3:MACE_forces:R:3 config_type=Fe34B10Si10 REF_energy=-359.84864784 MACE_energy=-360.5118010710106 pbc="T T T"
Fe       0.39531000       2.37288000       0.87042000       3.27925500       2.43832800      -1.60261100       3.16657854       2.62646914      -1.71077379
Fe       0.75383000       1.65209000       3.11094000       1.30783500      -0.34615400      -0.09267000       1.36968830      -0.70720707       0.04924791
Fe       1.33201000       3.79282000       7.26231000      -2.40668100      -1.18131200       0.32245500      -2.53412390      -1.19068341       0.18790489
Fe       0.64436000       4.41396000       2.97573000       2.42004200      -2.26182600       0.38963900       2.46373394      -2.06316896       0.21738753
Fe       0.14751000       6.42079000       3.51005000      -3.07002100       1.32407200      -2.30638400      -3.17360468       1.34175125      -2.49151729