54
Lattice="8.579999685 0.0 0.0 0.0 8.579999685 0.0 0.0 0.0 8.5799996" Properties=species:S:1:pos:R:3:REF_forces:R:3:MACE_forces:R:3 config_type=Fe34B10Si10 REF_energy=-352.89092233 MACE_energy=-353.3438468618526 pbc="T T T"
Fe       1.46495000       0.71583000       1.12880000       3.73230100      -3.41607500      -3.76209700       3.67823966      -3.48738220      -3.54362827
Fe       0.56244000       2.07917000       1.96452000      -3.31290700       4.06628900       2.54508600      -3.23102695       3.95784821       2.33723388
Fe       0.86636000       2.12990000       5.00906000     -10.85567700      -2.87102900      12.20968700     -10.92741337      -2.95486495      12.21406008
Fe       0.24697000       2.61233000       7.83061000      -0.37811800      -2.03816900      -0.08744800      -0.40610287      -1.89186413       0.07602608
Fe       0.35437000       4.66395000       8.16447000      -1.30300600       1.62250000       0.84662400      -1.33899762       1.61293966       0.78113853
Fe       0.83543000       8.00840000       3.01492000       5.54921000      -2.55787300       0.52513800       5.70336354      -2.53691146       0.39718850
Fe       2.03952000       7.84431000       6.63062000      -4.28706100       1.82495200      -1.68802900      -4.07608733       1.96511907      -1.62932361
Fe       3.34318000       0.11090000       2.96052000      -0.46571400      -0.35056300       0.37864800      -0.51060493      -0.23127555       0.46893929
Fe       3.26317000       2.11539000       1.48699000      -3.47884800      -0.03222100       0.61542300      -3.39811467      -0.29491143       0.17663822
Fe       4.14313000       2.75755000       3.31065000      -0.71378000      -2.73118300       1.93004800      -0.61843827      -2.41361251       1.87318525
Fe       2.55051000       2.67374000       7.19710000      -2.55215900      -0.93589000       1.77261600      -2.31189413      -1.13212945       1.71457678
Fe       3.61327000       2.86500000       5.46497000       1.55763200       0.20514300      -0.56676300       1.46927767       0.28382508      -0.28716171
Fe       2.62400000       4.72550000       1.39174000      -1.08585200      -1.19598700       0.59645400      -1.35384199      -1.00191543       0.69297732
Fe       2.20317000       5.21693000       3.87451000      -3.92870900      -4.38103900      -4.92199500      -3.85547577      -4.36697991      -4.96728722
Fe       3.93082000       4.37819000       8.08226000       1.07616800       0.44807800      -0.99700400       1.01184363       0.29899985      -0.94079122
Fe       2.44961000       7.01753000       1.08943000       0.32119000      -1.55635000       3.27006500       0.43746768      -1.61631306       3.26731941
Fe       3.02500000       6.15780000       5.08193000      -1.08486800       1.64126100       3.95415400      -0.62515877       1.63806190       4.04162529
Fe       5.77712000       0.44616000       0.16142000      -2.43333700       0.07175000       4.13474700      -2.47936845       0.41469231       4.21672855
Fe       5.66964000       0.14892000       2.95259000      -3.67617900       1.90971100       0.12919700      -3.66285637       1.64193664       0.32453426
Fe       5.39484000       2.66317000       1.55162000       4.08183700      -3.39937100       3.88213200       4.03872850      -3.65740011       4.04639644
Fe       5.91309000       3.40423000       8.31953000       8.90196200       5.48305700      -2.72562400       8.69964578       5.43896715      -2.69700550
Fe       4.96126000       4.63305000       3.41410000      -3.60269200      -2.00302700       2.25051900      -3.73811854      -2.21144496       2.38159450
Fe       5.11347000       6.81217000       1.78872000      -0.87770500       0.06714300      -1.61156800      -0.70519359       0.07847293      -1.57129059
Fe       5.00950000       6.45991000       8.24507000      -2.30619500      -0.19808200      -1.52355700      -2.28765534       0.01357413      -1.68178567
Fe       4.64263000       7.71190000       5.75084000       2.50156800       4.23919200      -1.55456800       2.60307976       4.28609306      -1.59000210
Fe       7.32285000       0.33022000       5.03535000      -0.99210900      -0.59745100       4.73628300      -1.02649243      -0.37897734       4.79561305
Fe       6.75330000       1.32958000       7.05071000       0.53851300       2.01290400       0.36400700       0.55685863       1.82744705       0.29654917
Fe       6.82686000       2.53028000       3.66692000      -0.08907100      -0.12987400      -0.26318300      -0.05246679      -0.20672248      -0.24195403
Fe       6.83617000       5.56618000       0.59386000       1.74434500       1.47371700      -3.32847200       1.81973834       1.63533454      -3.43696886
Fe       8.27091000       4.29855000       2.87718000       3.23308900       0.33980500       1.37352500       3.20214660       0.21984262       1.31565315
Fe       6.58774000       4.90718000       4.97515000      -1.87594500       0.58060600      -0.05143700      -2.10535439       0.62806887      -0.31262547
Fe       6.86773000       6.79187000       3.27473000       1.52763600      -2.76254700       0.67579100       1.38932076      -2.42355561       0.38005182
Fe       8.09083000       8.29691000       0.84396000      -4.18921500      -1.95965200       9.56442300      -4.16979285      -2.32175107       9.67354418
Fe       6.62133000       7.67903000       7.47205000      -3.65417600       1.51975600      -3.32990400      -3.90525873       1.24355430      -3.51362029
B        3.45077000       6.81738000       6.75435000       2.04131500      -2.79808300       3.80923700       1.92506045      -2.71666018       3.94398259
B        4.67436000       1.10514000       4.73414000       0.75036200       0.95391600      -0.52852700       0.82660885       0.87922810      -0.46569768
B        6.18153000       2.20088000       5.47737000      -4.49435700      -3.20609500      -2.27763700      -4.70646384      -3.14555315      -2.47758822
B        5.08133000       4.10197000       6.35983000       0.35152900       0.25548900      -0.65354500       0.57012823       0.33266182      -0.62008508
B        4.48663000       4.29393000       1.40792000      -0.27448100       1.04603100       0.21283300      -0.26033645       1.22155572       0.16260380
B        4.96286000       5.88068000       6.14703000       0.60492000      -1.85032800       0.29314600       0.61685794      -1.93266823       0.13219506
B        8.17242000       5.65216000       5.55863000       1.00443800       0.65677900      -0.69824300       1.01191243       0.71900529      -0.31297690
B        7.98743000       6.92663000       6.60530000       5.86774900       2.58695800      -4.05103700       5.84185552       2.47033917      -3.73732252
B        7.10769000       5.72812000       6.91109000      -2.33709700      -3.34606800       1.34633400      -2.30340510      -3.51409958       1.30439834
B        7.81665000       6.81498000       8.33858000       5.04350100      -2.41043400       0.97359300       5.15799250      -2.42451610       0.74196946
Si       0.06983000       0.14925000       7.74742000       4.12649000       2.60901100      -8.87608100       3.95543493       2.64406199      -8.85674833
Si       1.93337000       2.41223000       3.74634000      10.14534600       2.98113100     -12.18526000      10.23062265       3.10468656     -12.02129938
Si       0.75978000       6.02813000       1.69309000      -4.13401100      -0.74920300       1.02787300      -4.13183835      -0.87061266       1.02241120
Si       2.22023000       5.10313000       7.16329000      -1.58663400       1.19675500      -1.89967800      -1.77951489       1.15342054      -1.93086270
Si       3.27754000       8.17117000       8.35443000       4.04667900       4.58101600      -2.24829100       3.90103043       4.54265173      -2.45706624
Si       4.48145000       2.18337000       8.34202000      -5.72220500      -5.96162700      -4.99603400      -5.48498321      -5.81978241      -5.16172314
Si       6.36439000       4.54151000       2.12641000       2.28764700      -2.33178900       1.39384200       2.58146842      -2.23331584       1.27529612
Si       4.52267000       6.51460000       3.75633000       0.42177200       5.22743800       1.25328700       0.15750554       5.36288430       1.38847484
Si       7.68278000       0.22257000       3.11016000      -0.17295300       4.89916800      -3.86478000      -0.30074002       4.77685122      -3.97389571
Si       7.35363000       3.38410000       6.13231000       4.40786200       1.27045000       2.62604800       4.36680756       1.39309600       2.98580527
54
Lattice="8.579999685 0.0 0.0 0.0 8.579999685 0.0 0.0 0.0 8.5799996" Properties=species:S:1:pos:R:3:REF_forces:R:3:MACE_forces:R:3 config_type=Fe34B10Si10 REF_energy=-354.71875992 MACE_energy=-355.41456244699395 pbc="T T T"
Fe       0.43313000       1.19321000       2.96848000       1.47291300       2.99028000       0.61180900       1.62211750       2.97850277       0.32676653
Fe       0.91365000       1.12516000       8.09995000       2.76260400      -2.00335600       1.20968300       2.55725104      -2.11390740       1.10941123
Fe       1.17142000       2.67870000       5.23446000      -1.90323000       6.04651700       0.58026800      -1.69465077       6.28123014       0.61916794
Fe       0.60772000       3.85484000       0.87278000       2.66909500       4.89444800       4.53699300       2.65826780       5.10898926       4.22458219
Fe       1.41565000       3.44858000       3.01161000      -0.29549500       2.03729500      -0.74017400      -0.27044180       1.93046744      -0.67852438
Fe       0.04226000       2.91249000       8.09734000      -3.39897200      -2.84207300      -2.69442200      -3.06762243      -2.75805270      -2.46576094
Fe       1.33282000       7.09057000       5.22634000      -0.45239700      -1.35392500       0.92503500      -0.22448981      -1.50638959       0.82575406
Fe       2.06045000       7.92051000       0.98063000      -3.11321000      -0.30108300      -2.49280600      -3.23975340      -0.52795079      -2.32913848
Fe       2.03627000       8.24295000       3.50701000      -1.42216600       4.38122900       0.88517600      -1.53804054       4.19691881       0.55983538
Fe       0.01253000       8.02686000       7.00667000       2.58679700       0.98610200     -11.80201700       2.50818726       0.82973549     -11.93220020
Fe       3.00353000       0.57289000       6.13981000      -1.03922300       0.18357300       0.93137300      -0.71506944      -0.01764577       1.08481011
Fe       3.69949000       2.65196000       7.51811000       2.76433000      -4.34399200      -3.80269000       2.57778217      -4.15838282      -3.65136678
Fe       2.94478000       6.44154000       3.03987000       7.21319500      -3.66655800      -1.17614100       7.12740695      -3.39323364      -0.94259814
Fe       2.94309000       5.75189000       6.64956000      -6.24071800      -0.74678300       3.86021800      -6.56016867      -0.75294345       3.88678203
Fe       3.71160000       8.39321000       1.86324000       2.24845700      -0.43546600       0.28887200       2.37016969      -0.25355580       0.54054512
Fe       4.07810000       8.43915000       4.32840000       2.88035800       1.28304800      -0.49181300       2.93277572       1.47145615      -0.80152275
Fe       5.57499000       0.73262000       6.31633000      -3.12774100      -1.68249800      -0.98058200      -2.94039323      -1.72912540      -1.02700603
Fe       4.70712000       1.94493000       1.65492000      -2.04675700       4.97917500      -3.67899600      -2.14098318       4.83969170      -3.40115184
Fe       4.73401000       4.18392000       1.24748000       0.71501700       1.80608500      -0.06999200       0.69279519       1.98967106      -0.14928064
Fe       4.56687000       4.22266000       4.39618000       0.73801700       3.32591500      -2.10569900       0.58789695       3.46789964      -2.29924297
Fe       4.51224000       4.61167000       7.05684000       2.53211900      -0.41024200       0.53825400       2.97697178      -0.68185655       0.64038150
Fe       6.32808000       6.81945000       4.24288000      -3.20445400      -0.33519400      -1.28892300      -2.84385505      -0.27780352      -1.06966881
Fe       6.22240000       7.17309000       0.16230000      -3.30904600      -2.75215800       1.90373500      -3.53869526      -2.98403566       1.94562813
Fe       4.54224000       7.44382000       7.03838000       0.17895600      -5.02037800      -8.74618400       0.15051979      -5.29727030      -8.83798175
Fe       4.73272000       8.55832000       8.35561000      -0.10588400       8.96287400       6.54083400      -0.25094814       9.42427551       6.34230269
Fe       7.67285000       2.82429000       2.17742000      -2.12886900      -0.76272600      -2.06587500      -2.12784726      -0.72559258      -1.92149642
Fe       6.74071000       1.77406000       4.33655000       0.47479500       0.50025500      -0.42349800       0.12982346       0.51360964      -0.53937282
Fe       7.16362000       1.61896000       6.68131000       5.11373900       1.83737400       0.70818800       4.91180931       1.66004781       0.63515215
Fe       6.73653000       4.13840000       7.84564000       0.19062300       0.32905600       3.59274800       0.34949636       0.46137135       3.66998706
Fe       6.61248000       5.35948000       2.44590000       0.96755600      -0.77403900      -0.47053600       0.90028216      -0.76061379      -0.40939793
Fe       8.39074000       4.95678000       4.82580000       0.50677700       3.21370700       1.22596300       0.56822351       3.15339594       1.08262313
Fe       6.62275000       6.29700000       6.29237000       0.91106900      -0.58785400       1.74696000       0.85138891      -0.46709648       1.51888641
Fe       8.00875000       8.14674000       2.12563000      -1.25903800      -1.94608200      -3.37077000      -0.86036393      -1.95581742      -3.53601853
Fe       7.96861000       8.10559000       4.08816000       1.24434400       0.03207600       4.40361200       0.66661028      -0.03889162       4.62433295
B        3.14587000       1.61638000       2.59818000      -3.96044800      -1.57388800      -2.24367700      -4.09637421      -1.54218113      -2.22023184
B        4.07212000       1.93087000       3.78701000       0.55534200       0.12762300      -3.25123200       0.40647608      -0.02104587      -3.34546049
B        2.24412000       1.90783000       4.05913000      -1.80380000      -9.70850100      -5.48536600      -1.86254151      -9.89460910      -5.57961480
B        2.90130000       3.06657000       4.45062000       2.48509300       7.60479000      -1.50334300       2.78778356       7.12681159      -1.38643169
B        2.82587000       3.80138000       5.80651000       0.21675600       2.27927400       3.92227300       0.26365846       2.13110045       3.94493748
B        2.60929000       5.04297000       1.66311000       0.12617300      -0.77075900      -0.46531300      -0.02615649      -0.94999341      -0.48574630
B        2.47198000       4.95014000       4.32601000      -0.76752800      -1.31946700       0.35153300      -0.91367277      -1.14858587       0.35746767
B        2.73354000       7.81887000       7.66829000      -1.47869400      -0.15377200       0.00458000      -1.42799118      -0.13242194       0.09215871
B        5.68071000       2.28134000       7.79544000      -0.95924500       0.41857400       1.11780500      -1.06272790       0.37545640       1.11448279
B        7.77536000       3.70665000       3.76574000      -0.44877700      -1.48394500      -0.38974400      -0.48779714      -1.39044374      -0.18041501
Si       0.79518000       0.92195000       5.77957000      -1.66645900      -4.94136200      -1.10925300      -1.64216670      -5.07190856      -0.92421402
Si       0.88055000       4.20706000       6.73551000       1.15626000       3.58432200      -0.32349000       1.13055065       3.69496253      -0.29655176
Si       1.15025000       6.44729000       2.43826000      -7.77651300      -1.83655100      -1.54918700      -7.83098524      -1.67286138      -1.74890091
Si       2.82820000       3.29548000       0.50208000      -4.05499500       1.58525200       5.32597100      -4.11783237       1.40009524       5.20224745
Si       4.14031000       6.38272000       0.30005000      -2.16949800      -2.44928300       2.57761000      -2.30836725      -2.36796871       2.44867741
Si       3.68345000       6.43010000       5.01209000       3.98893100       0.98565200      -2.13453700       3.92183550       1.20072999      -2.03751858
Si       5.73751000       0.59059000       2.53265000       5.08228400      -4.90021500       2.23852200       5.18008060      -4.98048021       2.52314437
Si       4.51163000       2.47994000       5.36819000       2.60737700      -2.86786400       7.12589500       2.74597036      -2.59228681       7.29209308
Si       6.43436000       3.75222000       5.86206000       1.38008400       0.66155200      -3.64612400       1.50521608       0.67510615      -3.77694770
Si       8.06432000       7.52318000       8.55473000       2.36409700      -3.06603600      11.34847700       2.70858851      -2.74657302      11.36160491
18
Lattice="6.5 0.0 0.0 0.0 6.5 0.0 0.0 0.0 6.5" Properties=species:S:1:pos:R:3:REF_forces:R:3:MACE_forces:R:3 config_type=Fe12B3Si3 REF_energy=-113.87843945 MACE_energy=-112.41883588194688 pbc="T T T"
Fe       5.40234000       5.43492000       1.53729000      -1.39532100       2.04028400       0.71142300      -1.17561691       2.04405218       0.79238966
Fe       2.09750000       2.10361000       0.54730000       2.35673700      -0.33103000       1.27254800       2.69586021      -0.24062937       1.40550545
Fe       2.84360000       1.73250000       3.81271000       2.28004000      -1.18251600      -0.27344700       2.25046515      -1.08034416      -0.33183597
Fe       0.77541000       4.93717000       1.04317000       1.56096300      -3.83372900       1.76362000       1.53978803      -3.65640763       1.57020056
Fe       0.07665000       3.70431000       3.74351000      -0.75952900      -0.39175400      -2.23189700      -0.91171089      -0.48178569      -2.35413436
Fe       4.77171000       3.58949000       4.78220000      -1.99219600      -4.62409700       0.48420500      -1.78632578      -4.53990145       0.43525938
Fe       4.12430000       1.49867000       1.46476000       0.29771700      -2.38794700       0.28396300       0.35258688      -2.68795323       0.16007760
Fe       0.95387000       5.17746000       5.28728000      -0.57085000      -0.50160400      -1.80733600      -0.83954691      -0.68221215      -1.36449324
Fe       1.93602000       3.09888000       2.36598000      -0.08855100       0.43128300      -0.27209000      -0.24049564       0.55943425      -0.38517331
Fe       5.69037000       1.28357000       4.20026000      -0.40866000      -0.49067900       0.18976600      -0.70855856      -0.35452429       0.25132012
Fe       1.94321000       2.86141000       5.39871000      -0.55906500       0.73218900      -1.80086600      -0.66425025       1.07251102      -2.19045349
Fe       4.33122000       5.38124000       5.25469000      -0.73272900       4.56545400       1.52017900      -0.62355818       4.47838997       1.58360648
B        0.37598000       1.64060000       1.21420000      -3.21263000       2.85095800       0.76078000      -3.17209414       2.77281120       1.03172231
B        1.88110000       4.04794000       3.96741000       2.48956600       2.45119300      -0.32261600       2.52577407       2.28199406      -0.29997116
B        3.63878000       0.94242000       5.41981000      -0.01444500       0.67937600       0.95779200       0.03794695       0.78836352       1.06920610
Si       1.19380000       0.26963000       0.19686000       0.54051800       0.24528300      -1.93219100       0.61581816      -0.00691998      -1.88831782
Si       4.57825000       3.47658000       1.16117000       0.15934200       1.26766700      -0.81102600       0.21730334       1.36282954      -0.75443596
Si       1.09558000       0.76720000       2.75124000       0.04909300      -1.52033200       1.50719200      -0.11338553      -1.62970777       1.26952765
54
Lattice="8.579999685 0.0 0.0 0.0 8.579999685 0.0 0.0 0.0 8.5799996" Properties=species:S:1:pos:R:3:REF_forces:R:3:MACE_forces:R:3 config_type=Fe34B10Si10 REF_energy=-356.0869274 MACE_energy=-357.1672649620009 pbc="T T T"
Fe       0.92877000       1.08311000       2.12831000      -0.53214900      -1.15432400       0.53007800      -0.64126464      -1.15726810       0.46157377
Fe       1.12794000       0.45096000       7.37327000      -2.86345100       2.18226700       1.45805300      -2.72469041       2.04853869       1.42152758
Fe       0.91289000       3.61082000       1.96264000      -1.66570100       0.50807500      -4.76654600      -1.58179067       0.14804640      -4.52965248
Fe       0.97242000       3.25012000       3.83975000      -0.85629000      -1.23507100      -0.91491200      -1.13284047      -1.07863359      -0.60132235
Fe       1.43574000       3.84332000       5.84621000      -1.94378300      -0.72872400       4.94145300      -2.04641385      -0.53233659       4.74650126
Fe       0.45897000       5.99881000       1.32384000       1.86679900       1.45939200      -0.33976700       1.68399470       1.46122539      -0.15524622
Fe       0.05714000       6.25044000       6.01250000       0.66851500      -0.88142700       1.67028200       0.61187521      -0.74962283       1.70339845
Fe       1.87526000       7.05991000       7.27744000      -5.90957000       6.81146600       5.95768600      -5.62855031       6.98829519       5.78277964
Fe       4.21220000       0.80536000       3.81626000       0.44958900      -1.97725700       0.54591300       0.53899371      -1.82191601       0.45359555
Fe       2.64196000       0.75311000       5.88605000       0.80305000      -0.92688600      -1.50973400       0.50814582      -1.08518909      -1.50516103
Fe       2.51735000       4.27963000       7.86001000      -0.17185400       2.88247300       0.00075600      -0.18070678       3.06059727       0.05732991
Fe       2.46175000       4.76211000       4.38544000       2.27245000       6.36429500      -0.60000700       2.31090554       6.36908475      -0.49846963
Fe       3.99132000       4.46692000       6.09268000      -0.21521200      -1.96607600      -0.25853400      -0.30509552      -2.18899933      -0.14160430
Fe       4.03283000       6.20484000       2.50717000       0.32509400      -1.83048700       1.07686200       0.38095996      -1.77352509       1.10136009
Fe       2.62183000       8.12097000       1.25125000      -5.45108600      -1.04608100      -0.88869000      -5.57448464      -1.11067562      -0.67797294
Fe       2.34208000       7.49949000       3.33705000      -1.45221900       0.10179900       1.96325000      -1.29827672       0.10334731       1.58761046
Fe       4.67554000       0.98699000       8.35162000       1.97529500       0.95938300       0.07305200       1.71475025       0.85803078       0.31485639
Fe       4.68615000       2.28426000       1.60336000       6.03713100       4.39249100       1.56082500       6.17530779       4.36283292       1.12278287
Fe       4.95897000       4.28949000       0.91503000       1.24258400       3.77490300      -1.07876200       0.78924512       3.55251411      -1.17650994
Fe       5.62605000       3.84953000       3.25301000      -4.56775200       3.43217100       2.09526400      -4.69829171       3.45274062       1.90940039
Fe       5.63153000       5.70233000       4.67966000       0.04558900       0.36352900      -0.74034800       0.11436242      -0.04877989      -0.59632247
Fe       5.00954000       6.14620000       6.89198000       4.51113600      -2.60361300       1.43664400       4.55946538      -2.55095026       1.29325647
Fe       5.34723000       7.32984000       0.56425000       3.41130600      -7.55812200      -7.44238600       3.24856115      -7.12372313      -7.09502402
Fe       4.57141000       8.20633000       1.67615000      -2.51651100       6.57056000       9.11650700      -2.35319640       6.15912431       8.80455163
Fe       5.67084000       7.83697000       6.02451000      -0.02983000       3.57151200       0.33120700      -0.06015094       3.67222007       0.45681404
Fe       7.65837000       1.05332000       0.64336000       1.95813700       2.93603900      -3.62028800       1.80665378       2.81039338      -3.41246329
Fe       7.23579000       1.49494000       3.62009000       0.88838800      -1.50203300       3.00240400       1.07041024      -1.49881655       2.99726623
Fe       6.96409000       1.59543000       6.70415000       0.40175100      -2.57633900      -0.54943900       0.44090328      -2.39675470      -0.48543625
Fe       6.97946000       3.05325000       2.27831000       3.01329100      -2.85779700      -7.80747400       2.62796391      -2.87819446      -7.40565615
Fe       7.05854000       3.62734000       7.13255000       0.94483300       2.42104600       2.56329500       0.99885146       2.29071254       2.36472132
Fe       7.47490000       4.49325000       0.92243000      -3.13561000       0.06366500       0.11142200      -2.80945384       0.40214749      -0.13161493
Fe       7.76499000       5.40883000       4.05655000       3.42051700      -2.49950500       1.10150300       3.60377645      -2.65937330       1.14109423
Fe       6.91686000       6.16423000       2.38917000      -4.34160700       0.52717700      -3.24358900      -4.36130424       0.84607420      -3.24679505
Fe       7.31773000       7.39473000       4.73130000      -1.41907300       3.06948200       1.38572900      -1.44726368       2.98029590       1.32652430
B        1.63947000       5.44017000       2.85377000      -1.37965300       1.67099600      -0.34434500      -1.44423925       1.74871257      -0.54734585
B        3.47444000       1.29905000       1.69513000      -6.04542900      -7.46227000      -1.52467000      -6.12046000      -6.96620515      -1.28090442
B        2.31673000       1.42955000       3.77944000      -1.85652800      -2.14982900       3.21956500      -1.82435895      -1.94260758       3.30206820
B        3.17088000       0.01260000       8.16689000      -2.14308300      -0.12737100      -3.63430700      -2.09582469       0.12761939      -3.46838628
B        2.48887000       2.23189000       2.44876000      -1.30373000       3.96631200      -0.94871100      -0.90257404       3.69528751      -1.22872278
B        3.55016000       3.21990000       0.17024000       2.13469500      -3.52588700       0.23974700       2.15382398      -3.58111044       0.38231631
B        3.12966000       3.07291000       4.24572000      -6.99085300       0.34377600      -0.16579100      -6.84557878       0.10942133      -0.18172554
B        2.38358000       5.95301000       6.34325000       2.25901800      -8.76611800      -6.31465800       2.11081911      -9.05366893      -6.41599680
B        4.46260000       2.62992000       4.23823000       7.08507900      -1.75449200       0.40993300       6.95297707      -1.83302444       0.36322414
B        7.51183000       3.59374000       3.85724000       1.49621300      -1.20378300       3.39561400       1.49866578      -1.01810988       3.22923873
Si       0.50050000       1.66927000       5.10425000      -1.02554400      -2.67263500       2.61432900      -0.78431002      -2.97729827       2.56575371
Si       0.41923000       4.50138000       8.15701000       0.82744200      -0.47721100      -2.57541600       1.10810650      -0.43910062      -2.75327257
Si       2.90131000       4.25049000       1.93860000       2.71957100       0.04497600      -0.88170100       2.69911489       0.00030727      -1.02213434
Si       3.74353000       6.85388000       5.19884000      -1.20766000       1.80214700      -2.20114300      -1.07090441       1.93128253      -2.08022042
Si       3.54209000       6.47938000       8.21357000      -0.45014500      -1.75854100       4.24377300      -0.58036403      -2.02125089       4.40842687
Si       4.55252000       1.74669000       6.40118000       0.28733400       0.20348600      -1.69136000       0.28191762       0.22572087      -1.64199483
Si       5.87020000       3.30923000       5.41310000       1.93974000       0.55942400      -1.14043100       1.67702580       0.82331893      -1.22697804
Si       6.68392000       0.09389000       2.07850000      -2.78148600      -1.30329400       2.70552900      -2.56277880      -1.24323654       2.84921707
Si       7.30980000       7.36953000       0.08595000       4.18267400      -0.22507900      -1.67891000       4.39269287      -0.38606306      -1.74435597
Si       8.41387000       7.50606000       2.97540000       5.08859000       1.78741200      -0.88875800       5.01489799       1.88854264      -0.89590070
54
Lattice="8.579999685 0.0 0.0 0.0 8.579999685 0.0 0.0 0.0 8.5799996" Properties=species:S:1:pos:R:3:REF_forces:R:3:MACE_forces:R:3 config_type=Fe34B10Si10 REF_energy=-359.84864784 MACE_energy=-360.5023173063902 pbc="T T T"
Fe       0.39531000       2.37288000       0.87042000       3.27925500       2.43832800      -1.60261100       3.17743424       2.63422271      -1.70708359
Fe       0.75383000       1.65209000       3.11094000       1.30783500      -0.34615400      -0.09267000       1.36240105      -0.71988482       0.04455755
Fe       1.33201000       3.79282000       7.26231000      -2.40668100      -1.18131200       0.32245500      -2.52630265      -1.17846541       0.20838419
Fe       0.64436000       4.41396000       2.97573000       2.42004200      -2.26182600       0.38963900       2.45709204      -2.06442853       0.22178779
Fe       0.14751000       6.42079000       3.51005000      -3.07002100       1.32407200      -2.30638400      -3.16751145       1.32874485      -2.48143478