54
Lattice="8.579999685 0.0 0.0 0.0 8.579999685 0.0 0.0 0.0 8.5799996" Properties=species:S:1:pos:R:3:REF_forces:R:3:MACE_forces:R:3 config_type=Fe34B10Si10 REF_energy=-352.89092233 MACE_energy=-353.334896020133 pbc="T T T"
Fe       1.46495000       0.71583000       1.12880000       3.73230100      -3.41607500      -3.76209700       3.67823523      -3.49598944      -3.54353651
Fe       0.56244000       2.07917000       1.96452000      -3.31290700       4.06628900       2.54508600      -3.22787137       3.96144161       2.34173941
Fe       0.86636000       2.12990000       5.00906000     -10.85567700      -2.87102900      12.20968700     -10.93185267      -2.95450441      12.21650408
Fe       0.24697000       2.61233000       7.83061000      -0.37811800      -2.03816900      -0.08744800      -0.40691593      -1.89180917       0.07801077
Fe       0.35437000       4.66395000       8.16447000      -1.30300600       1.62250000       0.84662400      -1.33835013       1.60963368       0.77862144
Fe       0.83543000       8.00840000       3.01492000       5.54921000      -2.55787300       0.52513800       5.70428566      -2.53649227       0.39334850
Fe       2.03952000       7.84431000       6.63062000      -4.28706100       1.82495200      -1.68802900      -4.07456235       1.96394243      -1.63249642
Fe       3.34318000       0.11090000       2.96052000      -0.46571400      -0.35056300       0.37864800      -0.51409577      -0.23073824       0.46818844
Fe       3.26317000       2.11539000       1.48699000      -3.47884800      -0.03222100       0.61542300      -3.40140048      -0.29522841       0.17609929
Fe       4.14313000       2.75755000       3.31065000      -0.71378000      -2.73118300       1.93004800      -0.61792830      -2.40824891       1.86826785
Fe       2.55051000       2.67374000       7.19710000      -2.55215900      -0.93589000       1.77261600      -2.31127725      -1.13561361       1.71376658
Fe       3.61327000       2.86500000       5.46497000       1.55763200       0.20514300      -0.56676300       1.46664492       0.28089914      -0.28440183
Fe       2.62400000       4.72550000       1.39174000      -1.08585200      -1.19598700       0.59645400      -1.35309171      -1.00612210       0.69336467
Fe       2.20317000       5.21693000       3.87451000      -3.92870900      -4.38103900      -4.92199500      -3.85643774      -4.37555786      -4.97106038
Fe       3.93082000       4.37819000       8.08226000       1.07616800       0.44807800      -0.99700400       1.01687400       0.29916241      -0.93666843
Fe       2.44961000       7.01753000       1.08943000       0.32119000      -1.55635000       3.27006500       0.44041067      -1.61960400       3.26637301
Fe       3.02500000       6.15780000       5.08193000      -1.08486800       1.64126100       3.95415400      -0.63012600       1.64185313       4.04619940
Fe       5.77712000       0.44616000       0.16142000      -2.43333700       0.07175000       4.13474700      -2.47913042       0.41286663       4.21617334
Fe       5.66964000       0.14892000       2.95259000      -3.67617900       1.90971100       0.12919700      -3.65568473       1.64161365       0.32374790
Fe       5.39484000       2.66317000       1.55162000       4.08183700      -3.39937100       3.88213200       4.03521472      -3.65385447       4.04381856
Fe       5.91309000       3.40423000       8.31953000       8.90196200       5.48305700      -2.72562400       8.70418823       5.44658284      -2.70109701
Fe       4.96126000       4.63305000       3.41410000      -3.60269200      -2.00302700       2.25051900      -3.73795321      -2.21222486       2.37689075
Fe       5.11347000       6.81217000       1.78872000      -0.87770500       0.06714300      -1.61156800      -0.70488917       0.07888601      -1.56850013
Fe       5.00950000       6.45991000       8.24507000      -2.30619500      -0.19808200      -1.52355700      -2.28309687       0.01524763      -1.67928327
Fe       4.64263000       7.71190000       5.75084000       2.50156800       4.23919200      -1.55456800       2.60649766       4.27938085      -1.58884301
Fe       7.32285000       0.33022000       5.03535000      -0.99210900      -0.59745100       4.73628300      -1.02660244      -0.38094582       4.79856395
Fe       6.75330000       1.32958000       7.05071000       0.53851300       2.01290400       0.36400700       0.55997782       1.82663926       0.29111366
Fe       6.82686000       2.53028000       3.66692000      -0.08907100      -0.12987400      -0.26318300      -0.05516188      -0.20846373      -0.24153558
Fe       6.83617000       5.56618000       0.59386000       1.74434500       1.47371700      -3.32847200       1.81697753       1.63241798      -3.42908110
Fe       8.27091000       4.29855000       2.87718000       3.23308900       0.33980500       1.37352500       3.20360424       0.22435938       1.31939792
Fe       6.58774000       4.90718000       4.97515000      -1.87594500       0.58060600      -0.05143700      -2.10824971       0.62219902      -0.30549933
Fe       6.86773000       6.79187000       3.27473000       1.52763600      -2.76254700       0.67579100       1.38925242      -2.42076994       0.38409605
Fe       8.09083000       8.29691000       0.84396000      -4.18921500      -1.95965200       9.56442300      -4.17669390      -2.32292361       9.67479634
Fe       6.62133000       7.67903000       7.47205000      -3.65417600       1.51975600      -3.32990400      -3.90178263       1.24461621      -3.51470374
B        3.45077000       6.81738000       6.75435000       2.04131500      -2.79808300       3.80923700       1.92283346      -2.71220261       3.93996835
B        4.67436000       1.10514000       4.73414000       0.75036200       0.95391600      -0.52852700       0.82497689       0.87644393      -0.46459562
B        6.18153000       2.20088000       5.47737000      -4.49435700      -3.20609500      -2.27763700      -4.70506744      -3.14560325      -2.47388064
B        5.08133000       4.10197000       6.35983000       0.35152900       0.25548900      -0.65354500       0.57215184       0.33480734      -0.62640680
B        4.48663000       4.29393000       1.40792000      -0.27448100       1.04603100       0.21283300      -0.26028920       1.21978056       0.16429506
B        4.96286000       5.88068000       6.14703000       0.60492000      -1.85032800       0.29314600       0.62220527      -1.93082095       0.13082603
B        8.17242000       5.65216000       5.55863000       1.00443800       0.65677900      -0.69824300       1.01207369       0.72407530      -0.31685552
B        7.98743000       6.92663000       6.60530000       5.86774900       2.58695800      -4.05103700       5.84293421       2.48215223      -3.74175940
B        7.10769000       5.72812000       6.91109000      -2.33709700      -3.34606800       1.34633400      -2.31029635      -3.52079063       1.30014759
B        7.81665000       6.81498000       8.33858000       5.04350100      -2.41043400       0.97359300       5.16046992      -2.42399201       0.74660005
Si       0.06983000       0.14925000       7.74742000       4.12649000       2.60901100      -8.87608100       3.95393774       2.64224058      -8.85722444
Si       1.93337000       2.41223000       3.74634000      10.14534600       2.98113100     -12.18526000      10.23155393       3.10664979     -12.02098438
Si       0.75978000       6.02813000       1.69309000      -4.13401100      -0.74920300       1.02787300      -4.13304046      -0.87041133       1.02641961
Si       2.22023000       5.10313000       7.16329000      -1.58663400       1.19675500      -1.89967800      -1.78018020       1.15928033      -1.93213381
Si       3.27754000       8.17117000       8.35443000       4.04667900       4.58101600      -2.24829100       3.90102492       4.54234439      -2.46032862
Si       4.48145000       2.18337000       8.34202000      -5.72220500      -5.96162700      -4.99603400      -5.48447509      -5.82010395      -5.15826694
Si       6.36439000       4.54151000       2.12641000       2.28764700      -2.33178900       1.39384200       2.58425942      -2.23474325       1.27053373
Si       4.52267000       6.51460000       3.75633000       0.42177200       5.22743800       1.25328700       0.15900595       5.36906281       1.39233272
Si       7.68278000       0.22257000       3.11016000      -0.17295300       4.89916800      -3.86478000      -0.30430724       4.77367767      -3.97648422
Si       7.35363000       3.38410000       6.13231000       4.40786200       1.27045000       2.62604800       4.36122030       1.39550204       2.98542209
54
Lattice="8.579999685 0.0 0.0 0.0 8.579999685 0.0 0.0 0.0 8.5799996" Properties=species:S:1:pos:R:3:REF_forces:R:3:MACE_forces:R:3 config_type=Fe34B10Si10 REF_energy=-354.71875992 MACE_energy=-355.39948113938345 pbc="T T T"
Fe       0.43313000       1.19321000       2.96848000       1.47291300       2.99028000       0.61180900       1.62042535       2.97945921       0.32314012
Fe       0.91365000       1.12516000       8.09995000       2.76260400      -2.00335600       1.20968300       2.56456368      -2.12444591       1.11343557
Fe       1.17142000       2.67870000       5.23446000      -1.90323000       6.04651700       0.58026800      -1.69119847       6.28421626       0.61761079
Fe       0.60772000       3.85484000       0.87278000       2.66909500       4.89444800       4.53699300       2.66142788       5.10668568       4.23220141
Fe       1.41565000       3.44858000       3.01161000      -0.29549500       2.03729500      -0.74017400      -0.27625511       1.93115988      -0.67747880
Fe       0.04226000       2.91249000       8.09734000      -3.39897200      -2.84207300      -2.69442200      -3.08156568      -2.75607953      -2.47690721
Fe       1.33282000       7.09057000       5.22634000      -0.45239700      -1.35392500       0.92503500      -0.22051736      -1.50624020       0.82351241
Fe       2.06045000       7.92051000       0.98063000      -3.11321000      -0.30108300      -2.49280600      -3.24146173      -0.53092942      -2.32833746
Fe       2.03627000       8.24295000       3.50701000      -1.42216600       4.38122900       0.88517600      -1.53284211       4.19632991       0.55756292
Fe       0.01253000       8.02686000       7.00667000       2.58679700       0.98610200     -11.80201700       2.50737812       0.83030115     -11.93578996
Fe       3.00353000       0.57289000       6.13981000      -1.03922300       0.18357300       0.93137300      -0.71313506      -0.02007845       1.08471864
Fe       3.69949000       2.65196000       7.51811000       2.76433000      -4.34399200      -3.80269000       2.57624822      -4.15646828      -3.65697591
Fe       2.94478000       6.44154000       3.03987000       7.21319500      -3.66655800      -1.17614100       7.12421102      -3.38104293      -0.93531667
Fe       2.94309000       5.75189000       6.64956000      -6.24071800      -0.74678300       3.86021800      -6.56787675      -0.75502454       3.88284787
Fe       3.71160000       8.39321000       1.86324000       2.24845700      -0.43546600       0.28887200       2.36859414      -0.25248999       0.54100285
Fe       4.07810000       8.43915000       4.32840000       2.88035800       1.28304800      -0.49181300       2.93440493       1.47572455      -0.80326699
Fe       5.57499000       0.73262000       6.31633000      -3.12774100      -1.68249800      -0.98058200      -2.95002126      -1.73223087      -1.02817746
Fe       4.70712000       1.94493000       1.65492000      -2.04675700       4.97917500      -3.67899600      -2.14361879       4.83412204      -3.39782619
Fe       4.73401000       4.18392000       1.24748000       0.71501700       1.80608500      -0.06999200       0.69643126       1.99272118      -0.15131845
Fe       4.56687000       4.22266000       4.39618000       0.73801700       3.32591500      -2.10569900       0.59154555       3.47102236      -2.30255450
Fe       4.51224000       4.61167000       7.05684000       2.53211900      -0.41024200       0.53825400       2.97905923      -0.68403925       0.64270904
Fe       6.32808000       6.81945000       4.24288000      -3.20445400      -0.33519400      -1.28892300      -2.84642884      -0.28342359      -1.07230160
Fe       6.22240000       7.17309000       0.16230000      -3.30904600      -2.75215800       1.90373500      -3.54248468      -2.98320333       1.93908760
Fe       4.54224000       7.44382000       7.03838000       0.17895600      -5.02037800      -8.74618400       0.15207414      -5.29674202      -8.84347660
Fe       4.73272000       8.55832000       8.35561000      -0.10588400       8.96287400       6.54083400      -0.24991782       9.43617638       6.35791654
Fe       7.67285000       2.82429000       2.17742000      -2.12886900      -0.76272600      -2.06587500      -2.12637420      -0.72320900      -1.92352069
Fe       6.74071000       1.77406000       4.33655000       0.47479500       0.50025500      -0.42349800       0.13300723       0.51763468      -0.54441047
Fe       7.16362000       1.61896000       6.68131000       5.11373900       1.83737400       0.70818800       4.92267990       1.66155349       0.63750962
Fe       6.73653000       4.13840000       7.84564000       0.19062300       0.32905600       3.59274800       0.35067173       0.46188593       3.67288537
Fe       6.61248000       5.35948000       2.44590000       0.96755600      -0.77403900      -0.47053600       0.90327474      -0.76227657      -0.40548695
Fe       8.39074000       4.95678000       4.82580000       0.50677700       3.21370700       1.22596300       0.56555806       3.15345896       1.08464027
Fe       6.62275000       6.29700000       6.29237000       0.91106900      -0.58785400       1.74696000       0.85207846      -0.46613785       1.51975427
Fe       8.00875000       8.14674000       2.12563000      -1.25903800      -1.94608200      -3.37077000      -0.86064450      -1.95738248      -3.53873644
Fe       7.96861000       8.10559000       4.08816000       1.24434400       0.03207600       4.40361200       0.67152628      -0.03955737       4.62739077
B        3.14587000       1.61638000       2.59818000      -3.96044800      -1.57388800      -2.24367700      -4.09795094      -1.54398981      -2.21976452
B        4.07212000       1.93087000       3.78701000       0.55534200       0.12762300      -3.25123200       0.40687913      -0.02402442      -3.35342707
B        2.24412000       1.90783000       4.05913000      -1.80380000      -9.70850100      -5.48536600      -1.85524111      -9.89097329      -5.58067086
B        2.90130000       3.06657000       4.45062000       2.48509300       7.60479000      -1.50334300       2.78640116       7.11130932      -1.37895021
B        2.82587000       3.80138000       5.80651000       0.21675600       2.27927400       3.92227300       0.26769796       2.13215022       3.94858256
B        2.60929000       5.04297000       1.66311000       0.12617300      -0.77075900      -0.46531300      -0.02863528      -0.94868409      -0.48588543
B        2.47198000       4.95014000       4.32601000      -0.76752800      -1.31946700       0.35153300      -0.91515055      -1.14331683       0.35254375
B        2.73354000       7.81887000       7.66829000      -1.47869400      -0.15377200       0.00458000      -1.42522766      -0.13195097       0.09409874
B        5.68071000       2.28134000       7.79544000      -0.95924500       0.41857400       1.11780500      -1.06157526       0.37480737       1.11484832
B        7.77536000       3.70665000       3.76574000      -0.44877700      -1.48394500      -0.38974400      -0.49036709      -1.38867122      -0.18027932
Si       0.79518000       0.92195000       5.77957000      -1.66645900      -4.94136200      -1.10925300      -1.64285525      -5.07802444      -0.92142096
Si       0.88055000       4.20706000       6.73551000       1.15626000       3.58432200      -0.32349000       1.12960838       3.69820533      -0.29279508
Si       1.15025000       6.44729000       2.43826000      -7.77651300      -1.83655100      -1.54918700      -7.83038308      -1.66730900      -1.74875704
Si       2.82820000       3.29548000       0.50208000      -4.05499500       1.58525200       5.32597100      -4.12103854       1.39936202       5.19253079
Si       4.14031000       6.38272000       0.30005000      -2.16949800      -2.44928300       2.57761000      -2.30771386      -2.37260312       2.44798763
Si       3.68345000       6.43010000       5.01209000       3.98893100       0.98565200      -2.13453700       3.92024293       1.19817234      -2.03541488
Si       5.73751000       0.59059000       2.53265000       5.08228400      -4.90021500       2.23852200       5.18417205      -4.98547969       2.52724308
Si       4.51163000       2.47994000       5.36819000       2.60737700      -2.86786400       7.12589500       2.73942116      -2.59146814       7.29502873
Si       6.43436000       3.75222000       5.86206000       1.38008400       0.66155200      -3.64612400       1.50217578       0.67745918      -3.77846650
Si       8.06432000       7.52318000       8.55473000       2.36409700      -3.06603600      11.34847700       2.70872252      -2.74642085      11.36692456
18
Lattice="6.5 0.0 0.0 0.0 6.5 0.0 0.0 0.0 6.5" Properties=species:S:1:pos:R:3:REF_forces:R:3:MACE_forces:R:3 config_type=Fe12B3Si3 REF_energy=-113.87843945 MACE_energy=-112.43601085503596 pbc="T T T"
Fe       5.40234000       5.43492000       1.53729000      -1.39532100       2.04028400       0.71142300      -1.17255957       2.04631082       0.79147950
Fe       2.09750000       2.10361000       0.54730000       2.35673700      -0.33103000       1.27254800       2.70987233      -0.24234312       1.39234537
Fe       2.84360000       1.73250000       3.81271000       2.28004000      -1.18251600      -0.27344700       2.25360102      -1.08611389      -0.32881885
Fe       0.77541000       4.93717000       1.04317000       1.56096300      -3.83372900       1.76362000       1.54319511      -3.66213542       1.57089318
Fe       0.07665000       3.70431000       3.74351000      -0.75952900      -0.39175400      -2.23189700      -0.89756397      -0.47889445      -2.35987848
Fe       4.77171000       3.58949000       4.78220000      -1.99219600      -4.62409700       0.48420500      -1.79327126      -4.54335094       0.43928385
Fe       4.12430000       1.49867000       1.46476000       0.29771700      -2.38794700       0.28396300       0.35705757      -2.68742225       0.15809461
Fe       0.95387000       5.17746000       5.28728000      -0.57085000      -0.50160400      -1.80733600      -0.83482529      -0.68032838      -1.36858417
Fe       1.93602000       3.09888000       2.36598000      -0.08855100       0.43128300      -0.27209000      -0.24198020       0.56709250      -0.38069053
Fe       5.69037000       1.28357000       4.20026000      -0.40866000      -0.49067900       0.18976600      -0.70016909      -0.35658785       0.24905042
Fe       1.94321000       2.86141000       5.39871000      -0.55906500       0.73218900      -1.80086600      -0.67475324       1.09402791      -2.19523557
Fe       4.33122000       5.38124000       5.25469000      -0.73272900       4.56545400       1.52017900      -0.62192010       4.48636878       1.58655458
B        0.37598000       1.64060000       1.21420000      -3.21263000       2.85095800       0.76078000      -3.18495182       2.76716505       1.03772045
B        1.88110000       4.04794000       3.96741000       2.48956600       2.45119300      -0.32261600       2.52083889       2.26820608      -0.29095948
B        3.63878000       0.94242000       5.41981000      -0.01444500       0.67937600       0.95779200       0.03251209       0.78824374       1.07231514
Si       1.19380000       0.26963000       0.19686000       0.54051800       0.24528300      -1.93219100       0.61021723      -0.00986547      -1.88808059
Si       4.57825000       3.47658000       1.16117000       0.15934200       1.26766700      -0.81102600       0.21437323       1.35820321      -0.75487732
Si       1.09558000       0.76720000       2.75124000       0.04909300      -1.52033200       1.50719200      -0.11967292      -1.62857633       1.26938788
54
Lattice="8.579999685 0.0 0.0 0.0 8.579999685 0.0 0.0 0.0 8.5799996" Properties=species:S:1:pos:R:3:REF_forces:R:3:MACE_forces:R:3 config_type=Fe34B10Si10 REF_energy=-356.0869274 MACE_energy=-357.15082447454085 pbc="T T T"
Fe       0.92877000       1.08311000       2.12831000      -0.53214900      -1.15432400       0.53007800      -0.63590562      -1.15632886       0.46425988
Fe       1.12794000       0.45096000       7.37327000      -2.86345100       2.18226700       1.45805300      -2.72854185       2.05846097       1.42117178
Fe       0.91289000       3.61082000       1.96264000      -1.66570100       0.50807500      -4.76654600      -1.58276803       0.13568822      -4.51530015
Fe       0.97242000       3.25012000       3.83975000      -0.85629000      -1.23507100      -0.91491200      -1.12349635      -1.07402147      -0.61284701
Fe       1.43574000       3.84332000       5.84621000      -1.94378300      -0.72872400       4.94145300      -2.04745274      -0.53131561       4.73937974
Fe       0.45897000       5.99881000       1.32384000       1.86679900       1.45939200      -0.33976700       1.68003615       1.46022014      -0.15822164
Fe       0.05714000       6.25044000       6.01250000       0.66851500      -0.88142700       1.67028200       0.61316645      -0.75032019       1.71076433
Fe       1.87526000       7.05991000       7.27744000      -5.90957000       6.81146600       5.95768600      -5.62658105       6.98486652       5.78287657
Fe       4.21220000       0.80536000       3.81626000       0.44958900      -1.97725700       0.54591300       0.53818252      -1.81761855       0.45348169
Fe       2.64196000       0.75311000       5.88605000       0.80305000      -0.92688600      -1.50973400       0.50781752      -1.08634440      -1.51128234
Fe       2.51735000       4.27963000       7.86001000      -0.17185400       2.88247300       0.00075600      -0.18326337       3.06182654       0.06002681
Fe       2.46175000       4.76211000       4.38544000       2.27245000       6.36429500      -0.60000700       2.30528914       6.36852248      -0.49141808
Fe       3.99132000       4.46692000       6.09268000      -0.21521200      -1.96607600      -0.25853400      -0.31153018      -2.18852752      -0.13899579
Fe       4.03283000       6.20484000       2.50717000       0.32509400      -1.83048700       1.07686200       0.37402857      -1.77663739       1.10444925
Fe       2.62183000       8.12097000       1.25125000      -5.45108600      -1.04608100      -0.88869000      -5.58065186      -1.10805023      -0.67697811
Fe       2.34208000       7.49949000       3.33705000      -1.45221900       0.10179900       1.96325000      -1.29913187       0.10305280       1.58572651
Fe       4.67554000       0.98699000       8.35162000       1.97529500       0.95938300       0.07305200       1.71249095       0.85585798       0.31858572
Fe       4.68615000       2.28426000       1.60336000       6.03713100       4.39249100       1.56082500       6.17138859       4.36342356       1.12219115
Fe       4.95897000       4.28949000       0.91503000       1.24258400       3.77490300      -1.07876200       0.79056674       3.54891773      -1.17495103
Fe       5.62605000       3.84953000       3.25301000      -4.56775200       3.43217100       2.09526400      -4.70446973       3.44893254       1.91669160
Fe       5.63153000       5.70233000       4.67966000       0.04558900       0.36352900      -0.74034800       0.11594117      -0.05040214      -0.59606837
Fe       5.00954000       6.14620000       6.89198000       4.51113600      -2.60361300       1.43664400       4.56145961      -2.55814224       1.29053276
Fe       5.34723000       7.32984000       0.56425000       3.41130600      -7.55812200      -7.44238600       3.23971098      -7.13055216      -7.09851022
Fe       4.57141000       8.20633000       1.67615000      -2.51651100       6.57056000       9.11650700      -2.33679847       6.17203461       8.80835844
Fe       5.67084000       7.83697000       6.02451000      -0.02983000       3.57151200       0.33120700      -0.05770548       3.67470322       0.45880935
Fe       7.65837000       1.05332000       0.64336000       1.95813700       2.93603900      -3.62028800       1.80216953       2.80954771      -3.41108368
Fe       7.23579000       1.49494000       3.62009000       0.88838800      -1.50203300       3.00240400       1.07121109      -1.50058897       2.99925705
Fe       6.96409000       1.59543000       6.70415000       0.40175100      -2.57633900      -0.54943900       0.44045971      -2.39349362      -0.48155278
Fe       6.97946000       3.05325000       2.27831000       3.01329100      -2.85779700      -7.80747400       2.63243587      -2.87947330      -7.41221118
Fe       7.05854000       3.62734000       7.13255000       0.94483300       2.42104600       2.56329500       0.99881831       2.28626470       2.36304818
Fe       7.47490000       4.49325000       0.92243000      -3.13561000       0.06366500       0.11142200      -2.80764375       0.40417577      -0.13186230
Fe       7.76499000       5.40883000       4.05655000       3.42051700      -2.49950500       1.10150300       3.61111898      -2.66174863       1.14347502
Fe       6.91686000       6.16423000       2.38917000      -4.34160700       0.52717700      -3.24358900      -4.36514157       0.85277307      -3.24943227
Fe       7.31773000       7.39473000       4.73130000      -1.41907300       3.06948200       1.38572900      -1.45051098       2.98017967       1.32670746
B        1.63947000       5.44017000       2.85377000      -1.37965300       1.67099600      -0.34434500      -1.43797530       1.75238862      -0.54180989
B        3.47444000       1.29905000       1.69513000      -6.04542900      -7.46227000      -1.52467000      -6.12434588      -6.97020881      -1.28483518
B        2.31673000       1.42955000       3.77944000      -1.85652800      -2.14982900       3.21956500      -1.83099236      -1.94153507       3.29758890
B        3.17088000       0.01260000       8.16689000      -2.14308300      -0.12737100      -3.63430700      -2.09522300       0.12923382      -3.46725263
B        2.48887000       2.23189000       2.44876000      -1.30373000       3.96631200      -0.94871100      -0.90526969       3.69058819      -1.22915801
B        3.55016000       3.21990000       0.17024000       2.13469500      -3.52588700       0.23974700       2.15695217      -3.58601905       0.38323272
B        3.12966000       3.07291000       4.24572000      -6.99085300       0.34377600      -0.16579100      -6.83977923       0.10687739      -0.17888110
B        2.38358000       5.95301000       6.34325000       2.25901800      -8.76611800      -6.31465800       2.11274638      -9.05643193      -6.42081285
B        4.46260000       2.62992000       4.23823000       7.08507900      -1.75449200       0.40993300       6.94894508      -1.83000380       0.36199149
B        7.51183000       3.59374000       3.85724000       1.49621300      -1.20378300       3.39561400       1.49755490      -1.01501491       3.23002152
Si       0.50050000       1.66927000       5.10425000      -1.02554400      -2.67263500       2.61432900      -0.78461603      -2.97735603       2.56100124
Si       0.41923000       4.50138000       8.15701000       0.82744200      -0.47721100      -2.57541600       1.10969876      -0.44002317      -2.75414687
Si       2.90131000       4.25049000       1.93860000       2.71957100       0.04497600      -0.88170100       2.69670717       0.00018383      -1.02067223
Si       3.74353000       6.85388000       5.19884000      -1.20766000       1.80214700      -2.20114300      -1.07275424       1.93389805      -2.07743153
Si       3.54209000       6.47938000       8.21357000      -0.45014500      -1.75854100       4.24377300      -0.57821952      -2.01847573       4.40973436
Si       4.55252000       1.74669000       6.40118000       0.28733400       0.20348600      -1.69136000       0.28493580       0.22828781      -1.64676580
Si       5.87020000       3.30923000       5.41310000       1.93974000       0.55942400      -1.14043100       1.67935728       0.82284592      -1.23537105
Si       6.68392000       0.09389000       2.07850000      -2.78148600      -1.30329400       2.70552900      -2.56307893      -1.24265937       2.85157532
Si       7.30980000       7.36953000       0.08595000       4.18267400      -0.22507900      -1.67891000       4.40263627      -0.38214709      -1.74638937
Si       8.41387000       7.50606000       2.97540000       5.08859000       1.78741200      -0.88875800       5.01802137       1.88968836      -0.90069736
54
Lattice="8.579999685 0.0 0.0 0.0 8.579999685 0.0 0.0 0.0 8.5799996" Properties=species:S:1:pos:R:3:REF_forces:R:3:MACE_forces:R:3 config_type=Fe34B10Si10 REF_energy=-359.84864784 MACE_energy=-360.48479473151906 pbc="T T T"
Fe       0.39531000       2.37288000       0.87042000       3.27925500       2.43832800      -1.60261100       3.17884602       2.62782360      -1.70490785
Fe       0.75383000       1.65209000       3.11094000       1.30783500      -0.34615400      -0.09267000       1.36833421      -0.71234550       0.04472903
Fe       1.33201000       3.79282000       7.26231000      -2.40668100      -1.18131200       0.32245500      -2.53173936      -1.18006346       0.20647243
Fe       0.64436000       4.41396000       2.97573000       2.42004200      -2.26182600       0.38963900       2.45752444      -2.06345528       0.22047305
Fe       0.14751000       6.42079000       3.51005000      -3.07002100       1.32407200      -2.30638400      -3.17112107       1.32941614      -2.48309164