54
Lattice="8.579999685 0.0 0.0 0.0 8.579999685 0.0 0.0 0.0 8.5799996" Properties=species:S:1:pos:R:3:REF_forces:R:3:MACE_forces:R:3 config_type=Fe34B10Si10 REF_energy=-352.89092233 MACE_energy=-352.2816477112688 pbc="T T T"
Fe       1.46495000       0.71583000       1.12880000       3.73230100      -3.41607500      -3.76209700       3.44525954      -3.09813889      -3.04037686
Fe       0.56244000       2.07917000       1.96452000      -3.31290700       4.06628900       2.54508600      -3.52487992       3.83749382       1.97735358
Fe       0.86636000       2.12990000       5.00906000     -10.85567700      -2.87102900      12.20968700     -10.20452156      -2.56055577      11.88424103
Fe       0.24697000       2.61233000       7.83061000      -0.37811800      -2.03816900      -0.08744800      -0.40746643      -2.41327047       0.16363252
Fe       0.35437000       4.66395000       8.16447000      -1.30300600       1.62250000       0.84662400      -1.40061790       2.16928906       0.91202338
Fe       0.83543000       8.00840000       3.01492000       5.54921000      -2.55787300       0.52513800       5.55970118      -2.81196579       0.97117856
Fe       2.03952000       7.84431000       6.63062000      -4.28706100       1.82495200      -1.68802900      -4.38351703       2.18591441      -1.70275907
Fe       3.34318000       0.11090000       2.96052000      -0.46571400      -0.35056300       0.37864800      -0.56921093      -0.07311552       0.69352309
Fe       3.26317000       2.11539000       1.48699000      -3.47884800      -0.03222100       0.61542300      -3.34151759      -0.04267807      -0.33485002
Fe       4.14313000       2.75755000       3.31065000      -0.71378000      -2.73118300       1.93004800      -0.23590110      -2.14875845       1.75168873
Fe       2.55051000       2.67374000       7.19710000      -2.55215900      -0.93589000       1.77261600      -2.27623043      -0.90481999       1.84155565
Fe       3.61327000       2.86500000       5.46497000       1.55763200       0.20514300      -0.56676300       1.44349383       0.46253039      -0.70049789
Fe       2.62400000       4.72550000       1.39174000      -1.08585200      -1.19598700       0.59645400      -0.98537648      -1.18971508       0.57916214
Fe       2.20317000       5.21693000       3.87451000      -3.92870900      -4.38103900      -4.92199500      -3.82611438      -4.56456221      -5.57533988
Fe       3.93082000       4.37819000       8.08226000       1.07616800       0.44807800      -0.99700400       1.10313908       0.48291250      -0.36487168
Fe       2.44961000       7.01753000       1.08943000       0.32119000      -1.55635000       3.27006500       0.61947487      -1.26326945       2.79838055
Fe       3.02500000       6.15780000       5.08193000      -1.08486800       1.64126100       3.95415400      -0.15948408       1.66918434       4.36026526
Fe       5.77712000       0.44616000       0.16142000      -2.43333700       0.07175000       4.13474700      -1.97793829       0.24257747       4.28622730
Fe       5.66964000       0.14892000       2.95259000      -3.67617900       1.90971100       0.12919700      -3.59560166       1.94593566       0.06237959
Fe       5.39484000       2.66317000       1.55162000       4.08183700      -3.39937100       3.88213200       3.95169273      -3.44572602       4.04361567
Fe       5.91309000       3.40423000       8.31953000       8.90196200       5.48305700      -2.72562400       8.25145372       5.42653980      -3.05960550
Fe       4.96126000       4.63305000       3.41410000      -3.60269200      -2.00302700       2.25051900      -3.68898644      -1.99304631       3.24506378
Fe       5.11347000       6.81217000       1.78872000      -0.87770500       0.06714300      -1.61156800      -0.72507593       0.18908285      -1.84647011
Fe       5.00950000       6.45991000       8.24507000      -2.30619500      -0.19808200      -1.52355700      -2.28181962      -0.51298265      -1.89086899
Fe       4.64263000       7.71190000       5.75084000       2.50156800       4.23919200      -1.55456800       2.81563802       4.40082736      -1.44391802
Fe       7.32285000       0.33022000       5.03535000      -0.99210900      -0.59745100       4.73628300      -0.65849100      -0.45951594       4.39306010
Fe       6.75330000       1.32958000       7.05071000       0.53851300       2.01290400       0.36400700       0.51606368       1.43089139       0.56635670
Fe       6.82686000       2.53028000       3.66692000      -0.08907100      -0.12987400      -0.26318300       0.27405055      -0.15407859      -0.52668146
Fe       6.83617000       5.56618000       0.59386000       1.74434500       1.47371700      -3.32847200       1.31611078       0.94867967      -3.27594893
Fe       8.27091000       4.29855000       2.87718000       3.23308900       0.33980500       1.37352500       3.05904393       0.03747792       1.23201639
Fe       6.58774000       4.90718000       4.97515000      -1.87594500       0.58060600      -0.05143700      -2.35709216       1.40281362      -1.36439960
Fe       6.86773000       6.79187000       3.27473000       1.52763600      -2.76254700       0.67579100       1.34834896      -2.52904676       0.52368117
Fe       8.09083000       8.29691000       0.84396000      -4.18921500      -1.95965200       9.56442300      -3.74884594      -1.45346094       9.72628547
Fe       6.62133000       7.67903000       7.47205000      -3.65417600       1.51975600      -3.32990400      -4.62135103       1.44833089      -4.09042030
B        3.45077000       6.81738000       6.75435000       2.04131500      -2.79808300       3.80923700       2.19074360      -3.04761627       3.92468489
B        4.67436000       1.10514000       4.73414000       0.75036200       0.95391600      -0.52852700       0.28368016       0.20925041      -0.36978117
B        6.18153000       2.20088000       5.47737000      -4.49435700      -3.20609500      -2.27763700      -4.39853920      -2.69922175      -2.42416161
B        5.08133000       4.10197000       6.35983000       0.35152900       0.25548900      -0.65354500       0.35870288       0.16990699      -0.26894918
B        4.48663000       4.29393000       1.40792000      -0.27448100       1.04603100       0.21283300      -0.44288821       1.09175210      -0.00259881
B        4.96286000       5.88068000       6.14703000       0.60492000      -1.85032800       0.29314600       0.16318215      -1.55167015       0.48434288
B        8.17242000       5.65216000       5.55863000       1.00443800       0.65677900      -0.69824300       2.29237331       0.01772093      -0.62484215
B        7.98743000       6.92663000       6.60530000       5.86774900       2.58695800      -4.05103700       5.35593744       2.59253770      -3.00700180
B        7.10769000       5.72812000       6.91109000      -2.33709700      -3.34606800       1.34633400      -2.52253925      -3.55074387       1.62039654
B        7.81665000       6.81498000       8.33858000       5.04350100      -2.41043400       0.97359300       5.12468667      -2.84540404       0.51864781
Si       0.06983000       0.14925000       7.74742000       4.12649000       2.60901100      -8.87608100       4.19160553       2.95697183      -8.85565045
Si       1.93337000       2.41223000       3.74634000      10.14534600       2.98113100     -12.18526000       9.52675826       2.72777760     -11.22015562
Si       0.75978000       6.02813000       1.69309000      -4.13401100      -0.74920300       1.02787300      -3.66710634      -1.14532630       0.84405260
Si       2.22023000       5.10313000       7.16329000      -1.58663400       1.19675500      -1.89967800      -1.67511997       1.09981856      -1.77511809
Si       3.27754000       8.17117000       8.35443000       4.04667900       4.58101600      -2.24829100       3.67644695       4.46731985      -1.81211291
Si       4.48145000       2.18337000       8.34202000      -5.72220500      -5.96162700      -4.99603400      -5.82978896      -5.90068470      -4.99396309
Si       6.36439000       4.54151000       2.12641000       2.28764700      -2.33178900       1.39384200       2.22943070      -2.15880127       1.14113327
Si       4.52267000       6.51460000       3.75633000       0.42177200       5.22743800       1.25328700       0.38196562       5.06202956       0.88766427
Si       7.68278000       0.22257000       3.11016000      -0.17295300       4.89916800      -3.86478000      -0.28580488       4.50400914      -3.80306292
Si       7.35363000       3.38410000       6.13231000       4.40786200       1.27045000       2.62604800       4.31284257       1.33859940       2.94179319
54
Lattice="8.579999685 0.0 0.0 0.0 8.579999685 0.0 0.0 0.0 8.5799996" Properties=species:S:1:pos:R:3:REF_forces:R:3:MACE_forces:R:3 config_type=Fe34B10Si10 REF_energy=-354.71875992 MACE_energy=-352.35854543787326 pbc="T T T"
Fe       0.43313000       1.19321000       2.96848000       1.47291300       2.99028000       0.61180900       1.82832230       2.65825753       0.53852102
Fe       0.91365000       1.12516000       8.09995000       2.76260400      -2.00335600       1.20968300       2.71490537      -1.75889686       1.52082341
Fe       1.17142000       2.67870000       5.23446000      -1.90323000       6.04651700       0.58026800      -2.97524128       6.55878325       0.47036657
Fe       0.60772000       3.85484000       0.87278000       2.66909500       4.89444800       4.53699300       2.54966618       5.36396440       4.25013386
Fe       1.41565000       3.44858000       3.01161000      -0.29549500       2.03729500      -0.74017400       0.22160978       1.88264468      -0.71565205
Fe       0.04226000       2.91249000       8.09734000      -3.39897200      -2.84207300      -2.69442200      -3.77186978      -3.26294030      -3.29374146
Fe       1.33282000       7.09057000       5.22634000      -0.45239700      -1.35392500       0.92503500      -0.02799976      -1.29953553       0.64013599
Fe       2.06045000       7.92051000       0.98063000      -3.11321000      -0.30108300      -2.49280600      -3.66690262      -0.38480589      -2.73655932
Fe       2.03627000       8.24295000       3.50701000      -1.42216600       4.38122900       0.88517600      -1.59513038       3.99702480       0.70364561
Fe       0.01253000       8.02686000       7.00667000       2.58679700       0.98610200     -11.80201700       2.02076601       0.45781799     -11.71903670
Fe       3.00353000       0.57289000       6.13981000      -1.03922300       0.18357300       0.93137300      -0.51393036       0.47993873       0.75524568
Fe       3.69949000       2.65196000       7.51811000       2.76433000      -4.34399200      -3.80269000       1.80196026      -3.98262963      -3.79820553
Fe       2.94478000       6.44154000       3.03987000       7.21319500      -3.66655800      -1.17614100       7.40221710      -2.98244838      -0.61380459
Fe       2.94309000       5.75189000       6.64956000      -6.24071800      -0.74678300       3.86021800      -5.98936514      -0.80913190       4.54063628
Fe       3.71160000       8.39321000       1.86324000       2.24845700      -0.43546600       0.28887200       3.04127851      -0.22747374       1.01711388
Fe       4.07810000       8.43915000       4.32840000       2.88035800       1.28304800      -0.49181300       2.64237463       1.46568398      -0.62227703
Fe       5.57499000       0.73262000       6.31633000      -3.12774100      -1.68249800      -0.98058200      -2.85956292      -2.15299030      -1.63421322
Fe       4.70712000       1.94493000       1.65492000      -2.04675700       4.97917500      -3.67899600      -1.07088841       4.57374023      -4.02196763
Fe       4.73401000       4.18392000       1.24748000       0.71501700       1.80608500      -0.06999200       0.68647945       1.73942380       0.07697674
Fe       4.56687000       4.22266000       4.39618000       0.73801700       3.32591500      -2.10569900       0.35643331       4.34504621      -2.53015376
Fe       4.51224000       4.61167000       7.05684000       2.53211900      -0.41024200       0.53825400       2.73612293      -0.23453993       0.37849572
Fe       6.32808000       6.81945000       4.24288000      -3.20445400      -0.33519400      -1.28892300      -2.60575674      -0.45168231      -1.21551840
Fe       6.22240000       7.17309000       0.16230000      -3.30904600      -2.75215800       1.90373500      -2.84375962      -2.97987676       2.02143708
Fe       4.54224000       7.44382000       7.03838000       0.17895600      -5.02037800      -8.74618400      -0.06852190      -5.05172060      -7.93511400
Fe       4.73272000       8.55832000       8.35561000      -0.10588400       8.96287400       6.54083400      -1.08954915       8.47501671       5.46135160
Fe       7.67285000       2.82429000       2.17742000      -2.12886900      -0.76272600      -2.06587500      -2.32745936      -0.84520710      -1.89401994
Fe       6.74071000       1.77406000       4.33655000       0.47479500       0.50025500      -0.42349800       0.11006154       0.62308706      -0.61635075
Fe       7.16362000       1.61896000       6.68131000       5.11373900       1.83737400       0.70818800       4.95250898       1.88262946       1.02528668
Fe       6.73653000       4.13840000       7.84564000       0.19062300       0.32905600       3.59274800       0.14078184       1.21560110       3.67722643
Fe       6.61248000       5.35948000       2.44590000       0.96755600      -0.77403900      -0.47053600       0.56459035      -0.60369170      -0.25292506
Fe       8.39074000       4.95678000       4.82580000       0.50677700       3.21370700       1.22596300       0.75424980       2.75973090       1.09915909
Fe       6.62275000       6.29700000       6.29237000       0.91106900      -0.58785400       1.74696000       0.65023494      -0.57274813       1.71478386
Fe       8.00875000       8.14674000       2.12563000      -1.25903800      -1.94608200      -3.37077000      -1.43300756      -1.58224530      -3.74586343
Fe       7.96861000       8.10559000       4.08816000       1.24434400       0.03207600       4.40361200       0.97426980       0.25893008       4.66471574
B        3.14587000       1.61638000       2.59818000      -3.96044800      -1.57388800      -2.24367700      -4.11188573      -1.04434461      -1.65450506
B        4.07212000       1.93087000       3.78701000       0.55534200       0.12762300      -3.25123200       1.21615131      -1.05652404      -3.56906099
B        2.24412000       1.90783000       4.05913000      -1.80380000      -9.70850100      -5.48536600      -2.48067305     -11.01016671      -5.09507173
B        2.90130000       3.06657000       4.45062000       2.48509300       7.60479000      -1.50334300       3.14749566       7.41805023      -1.90674091
B        2.82587000       3.80138000       5.80651000       0.21675600       2.27927400       3.92227300       0.66774358       2.95721115       3.72801959
B        2.60929000       5.04297000       1.66311000       0.12617300      -0.77075900      -0.46531300      -0.04260750      -0.84456613      -0.56908609
B        2.47198000       4.95014000       4.32601000      -0.76752800      -1.31946700       0.35153300      -0.78591480      -1.49743752       0.61365893
B        2.73354000       7.81887000       7.66829000      -1.47869400      -0.15377200       0.00458000      -0.89963412      -0.14065121       0.17812249
B        5.68071000       2.28134000       7.79544000      -0.95924500       0.41857400       1.11780500      -0.42208640      -0.02975159       0.86400089
B        7.77536000       3.70665000       3.76574000      -0.44877700      -1.48394500      -0.38974400      -0.62982163      -1.38595919      -0.27220481
Si       0.79518000       0.92195000       5.77957000      -1.66645900      -4.94136200      -1.10925300      -1.30669846      -4.76275639      -0.92201511
Si       0.88055000       4.20706000       6.73551000       1.15626000       3.58432200      -0.32349000       1.01941767       3.58564096       0.30173118
Si       1.15025000       6.44729000       2.43826000      -7.77651300      -1.83655100      -1.54918700      -8.04682149      -1.74025528      -1.89363301
Si       2.82820000       3.29548000       0.50208000      -4.05499500       1.58525200       5.32597100      -3.66044758       1.36423470       4.85314682
Si       4.14031000       6.38272000       0.30005000      -2.16949800      -2.44928300       2.57761000      -2.33363711      -2.34490858       2.13859018
Si       3.68345000       6.43010000       5.01209000       3.98893100       0.98565200      -2.13453700       3.80876012       1.22719664      -2.15133342
Si       5.73751000       0.59059000       2.53265000       5.08228400      -4.90021500       2.23852200       4.75179287      -4.49091917       2.83366400
Si       4.51163000       2.47994000       5.36819000       2.60737700      -2.86786400       7.12589500       2.93844285      -2.85999619       7.29668383
Si       6.43436000       3.75222000       5.86206000       1.38008400       0.66155200      -3.64612400       1.03971987       0.42339130      -3.24776401
Si       8.06432000       7.52318000       8.55473000       2.36409700      -3.06603600      11.34847700       2.82081581      -3.32224492      11.26314488
18
Lattice="6.5 0.0 0.0 0.0 6.5 0.0 0.0 0.0 6.5" Properties=species:S:1:pos:R:3:REF_forces:R:3:MACE_forces:R:3 config_type=Fe12B3Si3 REF_energy=-113.87843945 MACE_energy=-120.79307332243943 pbc="T T T"
Fe       5.40234000       5.43492000       1.53729000      -1.39532100       2.04028400       0.71142300      -2.46703821       2.53936713       1.07503757
Fe       2.09750000       2.10361000       0.54730000       2.35673700      -0.33103000       1.27254800       2.87971504      -0.76139286       2.70828374
Fe       2.84360000       1.73250000       3.81271000       2.28004000      -1.18251600      -0.27344700       2.27019094      -1.31504514      -0.42545286
Fe       0.77541000       4.93717000       1.04317000       1.56096300      -3.83372900       1.76362000       2.29641106      -3.86125625       1.60263349
Fe       0.07665000       3.70431000       3.74351000      -0.75952900      -0.39175400      -2.23189700      -1.22950349      -0.43868559      -2.18336952
Fe       4.77171000       3.58949000       4.78220000      -1.99219600      -4.62409700       0.48420500      -1.40349318      -4.26950603       0.43708948
Fe       4.12430000       1.49867000       1.46476000       0.29771700      -2.38794700       0.28396300       0.44942561      -3.46211836       0.81766226
Fe       0.95387000       5.17746000       5.28728000      -0.57085000      -0.50160400      -1.80733600      -0.59190793       0.03725482      -1.33430996
Fe       1.93602000       3.09888000       2.36598000      -0.08855100       0.43128300      -0.27209000      -0.15184736       1.07291289      -0.74982045
Fe       5.69037000       1.28357000       4.20026000      -0.40866000      -0.49067900       0.18976600      -0.64522051      -0.47277718       0.28573601
Fe       1.94321000       2.86141000       5.39871000      -0.55906500       0.73218900      -1.80086600      -1.01033682       1.85411671      -2.48062647
Fe       4.33122000       5.38124000       5.25469000      -0.73272900       4.56545400       1.52017900      -0.72688265       4.40585459       1.22773590
B        0.37598000       1.64060000       1.21420000      -3.21263000       2.85095800       0.76078000      -3.28481302       2.65975126       0.10535999
B        1.88110000       4.04794000       3.96741000       2.48956600       2.45119300      -0.32261600       2.64977573       2.30215360      -0.37105782
B        3.63878000       0.94242000       5.41981000      -0.01444500       0.67937600       0.95779200       0.47650261       0.02990272       0.72426807
Si       1.19380000       0.26963000       0.19686000       0.54051800       0.24528300      -1.93219100       0.52299962      -0.15865021      -2.04184679
Si       4.57825000       3.47658000       1.16117000       0.15934200       1.26766700      -0.81102600      -0.17516535       1.49278948      -0.91341391
Si       1.09558000       0.76720000       2.75124000       0.04909300      -1.52033200       1.50719200       0.14118792      -1.65467158       1.51609126
54
Lattice="8.579999685 0.0 0.0 0.0 8.579999685 0.0 0.0 0.0 8.5799996" Properties=species:S:1:pos:R:3:REF_forces:R:3:MACE_forces:R:3 config_type=Fe34B10Si10 REF_energy=-356.0869274 MACE_energy=-354.4768520824529 pbc="T T T"
Fe       0.92877000       1.08311000       2.12831000      -0.53214900      -1.15432400       0.53007800      -0.55756622      -0.66612752       0.60759374
Fe       1.12794000       0.45096000       7.37327000      -2.86345100       2.18226700       1.45805300      -2.51933493       2.31630733       1.66201947
Fe       0.91289000       3.61082000       1.96264000      -1.66570100       0.50807500      -4.76654600      -2.39231193       0.11535748      -4.61159693
Fe       0.97242000       3.25012000       3.83975000      -0.85629000      -1.23507100      -0.91491200      -0.34486944      -0.78571125      -0.13855264
Fe       1.43574000       3.84332000       5.84621000      -1.94378300      -0.72872400       4.94145300      -1.76866937      -0.84277851       4.25581537
Fe       0.45897000       5.99881000       1.32384000       1.86679900       1.45939200      -0.33976700       2.10535818       1.83481897      -0.16981849
Fe       0.05714000       6.25044000       6.01250000       0.66851500      -0.88142700       1.67028200       1.09892388      -1.15998048       1.78500094
Fe       1.87526000       7.05991000       7.27744000      -5.90957000       6.81146600       5.95768600      -5.68302957       6.88189472       5.28320305
Fe       4.21220000       0.80536000       3.81626000       0.44958900      -1.97725700       0.54591300       0.35616134      -1.59254977      -0.04574669
Fe       2.64196000       0.75311000       5.88605000       0.80305000      -0.92688600      -1.50973400       0.40631863      -0.59613935      -1.53781163
Fe       2.51735000       4.27963000       7.86001000      -0.17185400       2.88247300       0.00075600      -0.41737603       2.46546017      -0.58938664
Fe       2.46175000       4.76211000       4.38544000       2.27245000       6.36429500      -0.60000700       2.24551901       5.59106209      -0.95800402
Fe       3.99132000       4.46692000       6.09268000      -0.21521200      -1.96607600      -0.25853400      -0.61602042      -2.02711479      -0.58096355
Fe       4.03283000       6.20484000       2.50717000       0.32509400      -1.83048700       1.07686200       0.46544845      -1.81362489       0.84464706
Fe       2.62183000       8.12097000       1.25125000      -5.45108600      -1.04608100      -0.88869000      -4.69353360      -1.26066645      -0.71984583
Fe       2.34208000       7.49949000       3.33705000      -1.45221900       0.10179900       1.96325000      -1.30661509       0.13055338       1.97206898
Fe       4.67554000       0.98699000       8.35162000       1.97529500       0.95938300       0.07305200       2.28646971       1.00199993       0.46002330
Fe       4.68615000       2.28426000       1.60336000       6.03713100       4.39249100       1.56082500       7.12723777       4.60025336       1.26008232
Fe       4.95897000       4.28949000       0.91503000       1.24258400       3.77490300      -1.07876200       1.58814080       3.51160392      -1.37397798
Fe       5.62605000       3.84953000       3.25301000      -4.56775200       3.43217100       2.09526400      -4.54518320       3.56716752       1.11389767
Fe       5.63153000       5.70233000       4.67966000       0.04558900       0.36352900      -0.74034800      -0.49574876      -0.14555685      -0.59511397
Fe       5.00954000       6.14620000       6.89198000       4.51113600      -2.60361300       1.43664400       3.63680844      -2.42138565       1.35210725
Fe       5.34723000       7.32984000       0.56425000       3.41130600      -7.55812200      -7.44238600       3.11918194      -6.76417644      -7.19083750
Fe       4.57141000       8.20633000       1.67615000      -2.51651100       6.57056000       9.11650700      -2.85691545       5.84245839       8.99575387
Fe       5.67084000       7.83697000       6.02451000      -0.02983000       3.57151200       0.33120700      -0.05847047       4.34331073       0.44620648
Fe       7.65837000       1.05332000       0.64336000       1.95813700       2.93603900      -3.62028800       1.64399173       2.67440424      -3.67714659
Fe       7.23579000       1.49494000       3.62009000       0.88838800      -1.50203300       3.00240400       0.49735237      -1.23172216       3.17458780
Fe       6.96409000       1.59543000       6.70415000       0.40175100      -2.57633900      -0.54943900       0.39356223      -2.93235968      -0.46703436
Fe       6.97946000       3.05325000       2.27831000       3.01329100      -2.85779700      -7.80747400       2.55861194      -3.95173496      -6.36166258
Fe       7.05854000       3.62734000       7.13255000       0.94483300       2.42104600       2.56329500       0.93833398       2.75466693       2.15144324
Fe       7.47490000       4.49325000       0.92243000      -3.13561000       0.06366500       0.11142200      -3.24026013       0.86375748      -0.74609874
Fe       7.76499000       5.40883000       4.05655000       3.42051700      -2.49950500       1.10150300       3.50560877      -2.40412093       0.83196281
Fe       6.91686000       6.16423000       2.38917000      -4.34160700       0.52717700      -3.24358900      -4.71012234       0.14243609      -2.82332040
Fe       7.31773000       7.39473000       4.73130000      -1.41907300       3.06948200       1.38572900      -1.14756271       3.30384030       0.99044407
B        1.63947000       5.44017000       2.85377000      -1.37965300       1.67099600      -0.34434500      -1.55772475       1.63301769      -0.32976576
B        3.47444000       1.29905000       1.69513000      -6.04542900      -7.46227000      -1.52467000      -5.64205746      -7.53335680      -1.18096786
B        2.31673000       1.42955000       3.77944000      -1.85652800      -2.14982900       3.21956500      -1.47721679      -2.08882362       3.24667659
B        3.17088000       0.01260000       8.16689000      -2.14308300      -0.12737100      -3.63430700      -1.71434231      -0.39378135      -3.11788620
B        2.48887000       2.23189000       2.44876000      -1.30373000       3.96631200      -0.94871100      -1.26055901       4.13729523      -0.42143779
B        3.55016000       3.21990000       0.17024000       2.13469500      -3.52588700       0.23974700       1.73985116      -3.40068945       0.73016651
B        3.12966000       3.07291000       4.24572000      -6.99085300       0.34377600      -0.16579100      -6.77601871       0.10897455       0.07158823
B        2.38358000       5.95301000       6.34325000       2.25901800      -8.76611800      -6.31465800       2.46758217      -9.23001092      -6.46635900
B        4.46260000       2.62992000       4.23823000       7.08507900      -1.75449200       0.40993300       6.00460509      -1.94924846       0.15824388
B        7.51183000       3.59374000       3.85724000       1.49621300      -1.20378300       3.39561400       1.59789927      -0.92184205       3.43202601
Si       0.50050000       1.66927000       5.10425000      -1.02554400      -2.67263500       2.61432900      -0.70651082      -2.67827181       2.41171329
Si       0.41923000       4.50138000       8.15701000       0.82744200      -0.47721100      -2.57541600       0.96823521      -0.20000304      -2.76331047
Si       2.90131000       4.25049000       1.93860000       2.71957100       0.04497600      -0.88170100       2.69783117       0.17090498      -0.66867058
Si       3.74353000       6.85388000       5.19884000      -1.20766000       1.80214700      -2.20114300      -1.26460947       1.55771708      -1.94699434
Si       3.54209000       6.47938000       8.21357000      -0.45014500      -1.75854100       4.24377300      -0.41050671      -1.72052716       4.53135430
Si       4.55252000       1.74669000       6.40118000       0.28733400       0.20348600      -1.69136000      -0.12343665       0.14366351      -1.42040849
Si       5.87020000       3.30923000       5.41310000       1.93974000       0.55942400      -1.14043100       2.00922317       0.97748261      -0.83139072
Si       6.68392000       0.09389000       2.07850000      -2.78148600      -1.30329400       2.70552900      -2.49768464      -1.07518086       2.46502291
Si       7.30980000       7.36953000       0.08595000       4.18267400      -0.22507900      -1.67891000       4.23576178      -0.91415980      -1.81365207
Si       8.41387000       7.50606000       2.97540000       5.08859000       1.78741200      -0.88875800       5.09023881       2.03123634      -0.68588733
54
Lattice="8.579999685 0.0 0.0 0.0 8.579999685 0.0 0.0 0.0 8.5799996" Properties=species:S:1:pos:R:3:REF_forces:R:3:MACE_forces:R:3 config_type=Fe34B10Si10 REF_energy=-359.84864784 MACE_energy=-358.32043655075364 pbc="T T T"
Fe       0.39531000       2.37288000       0.87042000       3.27925500       2.43832800      -1.60261100       2.92147386       2.66772846      -1.58482614
Fe       0.75383000       1.65209000       3.11094000       1.30783500      -0.34615400      -0.09267000       0.66742114      -0.60835052       0.18011189
Fe       1.33201000       3.79282000       7.26231000      -2.40668100      -1.18131200       0.32245500      -2.04460054      -0.75339733       0.90405059
Fe       0.64436000       4.41396000       2.97573000       2.42004200      -2.26182600       0.38963900       2.07523334      -2.14068950       0.55933699
Fe       0.14751000       6.42079000       3.51005000      -3.07002100       1.32407200      -2.30638400      -2.92965493       1.07796206      -2.35178690