54
Lattice="8.579999685 0.0 0.0 0.0 8.579999685 0.0 0.0 0.0 8.5799996" Properties=species:S:1:pos:R:3:REF_forces:R:3:MACE_forces:R:3 config_type=Fe34B10Si10 REF_energy=-352.89092233 MACE_energy=-353.3078885342153 pbc="T T T"
Fe       1.46495000       0.71583000       1.12880000       3.73230100      -3.41607500      -3.76209700       3.67740454      -3.53300540      -3.54339635
Fe       0.56244000       2.07917000       1.96452000      -3.31290700       4.06628900       2.54508600      -3.21871158       3.97699494       2.35805863
Fe       0.86636000       2.12990000       5.00906000     -10.85567700      -2.87102900      12.20968700     -10.94661995      -2.94919854      12.21839206
Fe       0.24697000       2.61233000       7.83061000      -0.37811800      -2.03816900      -0.08744800      -0.41065906      -1.90116650       0.08733426
Fe       0.35437000       4.66395000       8.16447000      -1.30300600       1.62250000       0.84662400      -1.33794677       1.60404309       0.77181489
Fe       0.83543000       8.00840000       3.01492000       5.54921000      -2.55787300       0.52513800       5.70739036      -2.53525806       0.38011529
Fe       2.03952000       7.84431000       6.63062000      -4.28706100       1.82495200      -1.68802900      -4.07332451       1.95812710      -1.64832354
Fe       3.34318000       0.11090000       2.96052000      -0.46571400      -0.35056300       0.37864800      -0.52778050      -0.22840784       0.46528191
Fe       3.26317000       2.11539000       1.48699000      -3.47884800      -0.03222100       0.61542300      -3.41044824      -0.29005697       0.17961076
Fe       4.14313000       2.75755000       3.31065000      -0.71378000      -2.73118300       1.93004800      -0.61399766      -2.38318627       1.84861017
Fe       2.55051000       2.67374000       7.19710000      -2.55215900      -0.93589000       1.77261600      -2.30947088      -1.14674891       1.71047219
Fe       3.61327000       2.86500000       5.46497000       1.55763200       0.20514300      -0.56676300       1.45898727       0.27144038      -0.27274534
Fe       2.62400000       4.72550000       1.39174000      -1.08585200      -1.19598700       0.59645400      -1.34967063      -1.02277123       0.69567207
Fe       2.20317000       5.21693000       3.87451000      -3.92870900      -4.38103900      -4.92199500      -3.86196312      -4.40849398      -4.98797537
Fe       3.93082000       4.37819000       8.08226000       1.07616800       0.44807800      -0.99700400       1.03124686       0.29655365      -0.92201492
Fe       2.44961000       7.01753000       1.08943000       0.32119000      -1.55635000       3.27006500       0.45382660      -1.63433310       3.26246324
Fe       3.02500000       6.15780000       5.08193000      -1.08486800       1.64126100       3.95415400      -0.64230745       1.66341058       4.06844142
Fe       5.77712000       0.44616000       0.16142000      -2.43333700       0.07175000       4.13474700      -2.47254426       0.40353259       4.21020886
Fe       5.66964000       0.14892000       2.95259000      -3.67617900       1.90971100       0.12919700      -3.63160994       1.63937301       0.31990965
Fe       5.39484000       2.66317000       1.55162000       4.08183700      -3.39937100       3.88213200       4.01819908      -3.63792326       4.03131607
Fe       5.91309000       3.40423000       8.31953000       8.90196200       5.48305700      -2.72562400       8.72311646       5.47256584      -2.71228727
Fe       4.96126000       4.63305000       3.41410000      -3.60269200      -2.00302700       2.25051900      -3.73960451      -2.21418323       2.36026022
Fe       5.11347000       6.81217000       1.78872000      -0.87770500       0.06714300      -1.61156800      -0.70530480       0.08010311      -1.55526381
Fe       5.00950000       6.45991000       8.24507000      -2.30619500      -0.19808200      -1.52355700      -2.26367507       0.02559558      -1.67593925
Fe       4.64263000       7.71190000       5.75084000       2.50156800       4.23919200      -1.55456800       2.61798655       4.25667476      -1.58676378
Fe       7.32285000       0.33022000       5.03535000      -0.99210900      -0.59745100       4.73628300      -1.02581027      -0.38680036       4.81313541
Fe       6.75330000       1.32958000       7.05071000       0.53851300       2.01290400       0.36400700       0.56687694       1.82353115       0.27459477
Fe       6.82686000       2.53028000       3.66692000      -0.08907100      -0.12987400      -0.26318300      -0.06615985      -0.21639905      -0.23591129
Fe       6.83617000       5.56618000       0.59386000       1.74434500       1.47371700      -3.32847200       1.80864757       1.62196438      -3.39947125
Fe       8.27091000       4.29855000       2.87718000       3.23308900       0.33980500       1.37352500       3.21206376       0.24191687       1.33749066
Fe       6.58774000       4.90718000       4.97515000      -1.87594500       0.58060600      -0.05143700      -2.12503596       0.59892549      -0.28179802
Fe       6.86773000       6.79187000       3.27473000       1.52763600      -2.76254700       0.67579100       1.39050645      -2.41328878       0.39871953
Fe       8.09083000       8.29691000       0.84396000      -4.18921500      -1.95965200       9.56442300      -4.20331530      -2.32417084       9.67527769
Fe       6.62133000       7.67903000       7.47205000      -3.65417600       1.51975600      -3.32990400      -3.89865512       1.25208967      -3.51561677
B        3.45077000       6.81738000       6.75435000       2.04131500      -2.79808300       3.80923700       1.91879993      -2.70254869       3.92425161
B        4.67436000       1.10514000       4.73414000       0.75036200       0.95391600      -0.52852700       0.82121503       0.86824785      -0.46144131
B        6.18153000       2.20088000       5.47737000      -4.49435700      -3.20609500      -2.27763700      -4.70099591      -3.14478942      -2.45969230
B        5.08133000       4.10197000       6.35983000       0.35152900       0.25548900      -0.65354500       0.57807760       0.34019294      -0.65197750
B        4.48663000       4.29393000       1.40792000      -0.27448100       1.04603100       0.21283300      -0.26373804       1.21434493       0.17155291
B        4.96286000       5.88068000       6.14703000       0.60492000      -1.85032800       0.29314600       0.64071673      -1.92683675       0.12599828
B        8.17242000       5.65216000       5.55863000       1.00443800       0.65677900      -0.69824300       1.01581916       0.74968898      -0.32790458
B        7.98743000       6.92663000       6.60530000       5.86774900       2.58695800      -4.05103700       5.84746583       2.51643112      -3.75091621
B        7.10769000       5.72812000       6.91109000      -2.33709700      -3.34606800       1.34633400      -2.33089367      -3.53512997       1.28705004
B        7.81665000       6.81498000       8.33858000       5.04350100      -2.41043400       0.97359300       5.16925765      -2.42835178       0.75507930
Si       0.06983000       0.14925000       7.74742000       4.12649000       2.60901100      -8.87608100       3.94970338       2.63271458      -8.85829933
Si       1.93337000       2.41223000       3.74634000      10.14534600       2.98113100     -12.18526000      10.23220932       3.10547136     -12.01451410
Si       0.75978000       6.02813000       1.69309000      -4.13401100      -0.74920300       1.02787300      -4.13764364      -0.87355470       1.03880350
Si       2.22023000       5.10313000       7.16329000      -1.58663400       1.19675500      -1.89967800      -1.77865355       1.18423707      -1.93778107
Si       3.27754000       8.17117000       8.35443000       4.04667900       4.58101600      -2.24829100       3.90311307       4.54216610      -2.47170745
Si       4.48145000       2.18337000       8.34202000      -5.72220500      -5.96162700      -4.99603400      -5.48370000      -5.82063283      -5.14679532
Si       6.36439000       4.54151000       2.12641000       2.28764700      -2.33178900       1.39384200       2.59582723      -2.23908934       1.25073037
Si       4.52267000       6.51460000       3.75633000       0.42177200       5.22743800       1.25328700       0.16612031       5.38952990       1.40279522
Si       7.68278000       0.22257000       3.11016000      -0.17295300       4.89916800      -3.86478000      -0.31469423       4.76257417      -3.98631383
Si       7.35363000       3.38410000       6.13231000       4.40786200       1.27045000       2.62604800       4.34035681       1.40388459       2.98140896
54
Lattice="8.579999685 0.0 0.0 0.0 8.579999685 0.0 0.0 0.0 8.5799996" Properties=species:S:1:pos:R:3:REF_forces:R:3:MACE_forces:R:3 config_type=Fe34B10Si10 REF_energy=-354.71875992 MACE_energy=-355.3562220328794 pbc="T T T"
Fe       0.43313000       1.19321000       2.96848000       1.47291300       2.99028000       0.61180900       1.61131302       2.98241063       0.30750399
Fe       0.91365000       1.12516000       8.09995000       2.76260400      -2.00335600       1.20968300       2.58894880      -2.16008620       1.12729804
Fe       1.17142000       2.67870000       5.23446000      -1.90323000       6.04651700       0.58026800      -1.67515258       6.29881630       0.60892258
Fe       0.60772000       3.85484000       0.87278000       2.66909500       4.89444800       4.53699300       2.67364047       5.08924774       4.25278745
Fe       1.41565000       3.44858000       3.01161000      -0.29549500       2.03729500      -0.74017400      -0.29450127       1.92992270      -0.67628153
Fe       0.04226000       2.91249000       8.09734000      -3.39897200      -2.84207300      -2.69442200      -3.13162801      -2.74608150      -2.50971840
Fe       1.33282000       7.09057000       5.22634000      -0.45239700      -1.35392500       0.92503500      -0.20707660      -1.50630879       0.81514717
Fe       2.06045000       7.92051000       0.98063000      -3.11321000      -0.30108300      -2.49280600      -3.24624332      -0.53554721      -2.32330185
Fe       2.03627000       8.24295000       3.50701000      -1.42216600       4.38122900       0.88517600      -1.51251143       4.19281048       0.54585125
Fe       0.01253000       8.02686000       7.00667000       2.58679700       0.98610200     -11.80201700       2.50333964       0.83355124     -11.95336464
Fe       3.00353000       0.57289000       6.13981000      -1.03922300       0.18357300       0.93137300      -0.70988183      -0.02572187       1.08441506
Fe       3.69949000       2.65196000       7.51811000       2.76433000      -4.34399200      -3.80269000       2.57504769      -4.14897601      -3.68048498
Fe       2.94478000       6.44154000       3.03987000       7.21319500      -3.66655800      -1.17614100       7.11258850      -3.33303139      -0.90724624
Fe       2.94309000       5.75189000       6.64956000      -6.24071800      -0.74678300       3.86021800      -6.59200414      -0.76517369       3.87257204
Fe       3.71160000       8.39321000       1.86324000       2.24845700      -0.43546600       0.28887200       2.35748910      -0.24661838       0.54200578
Fe       4.07810000       8.43915000       4.32840000       2.88035800       1.28304800      -0.49181300       2.94196838       1.48738699      -0.81140137
Fe       5.57499000       0.73262000       6.31633000      -3.12774100      -1.68249800      -0.98058200      -2.98301862      -1.74336075      -1.02474342
Fe       4.70712000       1.94493000       1.65492000      -2.04675700       4.97917500      -3.67899600      -2.15321773       4.81211759      -3.39130989
Fe       4.73401000       4.18392000       1.24748000       0.71501700       1.80608500      -0.06999200       0.71078057       2.00056782      -0.15753618
Fe       4.56687000       4.22266000       4.39618000       0.73801700       3.32591500      -2.10569900       0.60727903       3.48389206      -2.31560892
Fe       4.51224000       4.61167000       7.05684000       2.53211900      -0.41024200       0.53825400       2.98298765      -0.69167006       0.64718802
Fe       6.32808000       6.81945000       4.24288000      -3.20445400      -0.33519400      -1.28892300      -2.85880821      -0.30669545      -1.08336853
Fe       6.22240000       7.17309000       0.16230000      -3.30904600      -2.75215800       1.90373500      -3.56194584      -2.98215256       1.91105339
Fe       4.54224000       7.44382000       7.03838000       0.17895600      -5.02037800      -8.74618400       0.16451135      -5.28331256      -8.85039719
Fe       4.73272000       8.55832000       8.35561000      -0.10588400       8.96287400       6.54083400      -0.24755099       9.47056779       6.40455133
Fe       7.67285000       2.82429000       2.17742000      -2.12886900      -0.76272600      -2.06587500      -2.11789568      -0.71617528      -1.93194414
Fe       6.74071000       1.77406000       4.33655000       0.47479500       0.50025500      -0.42349800       0.14811650       0.53187497      -0.55879971
Fe       7.16362000       1.61896000       6.68131000       5.11373900       1.83737400       0.70818800       4.95883086       1.66499990       0.64328492
Fe       6.73653000       4.13840000       7.84564000       0.19062300       0.32905600       3.59274800       0.35023034       0.46119534       3.68119407
Fe       6.61248000       5.35948000       2.44590000       0.96755600      -0.77403900      -0.47053600       0.91440331      -0.76962705      -0.39049262
Fe       8.39074000       4.95678000       4.82580000       0.50677700       3.21370700       1.22596300       0.55392839       3.15293819       1.09766650
Fe       6.62275000       6.29700000       6.29237000       0.91106900      -0.58785400       1.74696000       0.85656924      -0.46386955       1.52654746
Fe       8.00875000       8.14674000       2.12563000      -1.25903800      -1.94608200      -3.37077000      -0.86194094      -1.95983168      -3.54736850
Fe       7.96861000       8.10559000       4.08816000       1.24434400       0.03207600       4.40361200       0.69414881      -0.04141814       4.63988463
B        3.14587000       1.61638000       2.59818000      -3.96044800      -1.57388800      -2.24367700      -4.10146397      -1.55395073      -2.21514634
B        4.07212000       1.93087000       3.78701000       0.55534200       0.12762300      -3.25123200       0.41092331      -0.03494741      -3.38941215
B        2.24412000       1.90783000       4.05913000      -1.80380000      -9.70850100      -5.48536600      -1.83796110      -9.88133560      -5.58614821
B        2.90130000       3.06657000       4.45062000       2.48509300       7.60479000      -1.50334300       2.77535738       7.05772516      -1.34746863
B        2.82587000       3.80138000       5.80651000       0.21675600       2.27927400       3.92227300       0.28557874       2.14015575       3.96397636
B        2.60929000       5.04297000       1.66311000       0.12617300      -0.77075900      -0.46531300      -0.03863080      -0.94504082      -0.48688097
B        2.47198000       4.95014000       4.32601000      -0.76752800      -1.31946700       0.35153300      -0.92037299      -1.12665682       0.33876407
B        2.73354000       7.81887000       7.66829000      -1.47869400      -0.15377200       0.00458000      -1.41756611      -0.12905362       0.10354988
B        5.68071000       2.28134000       7.79544000      -0.95924500       0.41857400       1.11780500      -1.05651874       0.37930591       1.11708513
B        7.77536000       3.70665000       3.76574000      -0.44877700      -1.48394500      -0.38974400      -0.50169400      -1.38340850      -0.18100930
Si       0.79518000       0.92195000       5.77957000      -1.66645900      -4.94136200      -1.10925300      -1.64291812      -5.09946057      -0.91256709
Si       0.88055000       4.20706000       6.73551000       1.15626000       3.58432200      -0.32349000       1.12381815       3.70956295      -0.27737092
Si       1.15025000       6.44729000       2.43826000      -7.77651300      -1.83655100      -1.54918700      -7.82508464      -1.64678404      -1.74807191
Si       2.82820000       3.29548000       0.50208000      -4.05499500       1.58525200       5.32597100      -4.13286763       1.39951395       5.15956319
Si       4.14031000       6.38272000       0.30005000      -2.16949800      -2.44928300       2.57761000      -2.30558146      -2.39017353       2.44012591
Si       3.68345000       6.43010000       5.01209000       3.98893100       0.98565200      -2.13453700       3.91541290       1.18619547      -2.02820792
Si       5.73751000       0.59059000       2.53265000       5.08228400      -4.90021500       2.23852200       5.19985387      -5.00192687       2.54169721
Si       4.51163000       2.47994000       5.36819000       2.60737700      -2.86786400       7.12589500       2.71739900      -2.58673062       7.30798335
Si       6.43436000       3.75222000       5.86206000       1.38008400       0.66155200      -3.64612400       1.48799967       0.68735255      -3.78239820
Si       8.06432000       7.52318000       8.55473000       2.36409700      -3.06603600      11.34847700       2.71157205      -2.74698422      11.38743098
18
Lattice="6.5 0.0 0.0 0.0 6.5 0.0 0.0 0.0 6.5" Properties=species:S:1:pos:R:3:REF_forces:R:3:MACE_forces:R:3 config_type=Fe12B3Si3 REF_energy=-113.87843945 MACE_energy=-112.49871944843704 pbc="T T T"
Fe       5.40234000       5.43492000       1.53729000      -1.39532100       2.04028400       0.71142300      -1.15386034       2.05305617       0.78374439
Fe       2.09750000       2.10361000       0.54730000       2.35673700      -0.33103000       1.27254800       2.76200780      -0.23927464       1.34162486
Fe       2.84360000       1.73250000       3.81271000       2.28004000      -1.18251600      -0.27344700       2.26334769      -1.10594338      -0.32120540
Fe       0.77541000       4.93717000       1.04317000       1.56096300      -3.83372900       1.76362000       1.54619682      -3.68426439       1.57642836
Fe       0.07665000       3.70431000       3.74351000      -0.75952900      -0.39175400      -2.23189700      -0.84535337      -0.46968884      -2.38188864
Fe       4.77171000       3.58949000       4.78220000      -1.99219600      -4.62409700       0.48420500      -1.82679020      -4.55267676       0.45839949
Fe       4.12430000       1.49867000       1.46476000       0.29771700      -2.38794700       0.28396300       0.37541753      -2.68700758       0.14833423
Fe       0.95387000       5.17746000       5.28728000      -0.57085000      -0.50160400      -1.80733600      -0.81130122      -0.66752232      -1.37946460
Fe       1.93602000       3.09888000       2.36598000      -0.08855100       0.43128300      -0.27209000      -0.24447508       0.59296536      -0.36940547
Fe       5.69037000       1.28357000       4.20026000      -0.40866000      -0.49067900       0.18976600      -0.66872959      -0.37026483       0.23955614
Fe       1.94321000       2.86141000       5.39871000      -0.55906500       0.73218900      -1.80086600      -0.71433279       1.17285380      -2.21019874
Fe       4.33122000       5.38124000       5.25469000      -0.73272900       4.56545400       1.52017900      -0.61766254       4.51132314       1.59528351
B        0.37598000       1.64060000       1.21420000      -3.21263000       2.85095800       0.76078000      -3.23398275       2.74328942       1.05085001
B        1.88110000       4.04794000       3.96741000       2.48956600       2.45119300      -0.32261600       2.50810815       2.21356309      -0.24987553
B        3.63878000       0.94242000       5.41981000      -0.01444500       0.67937600       0.95779200       0.01291468       0.78852490       1.08923902
Si       1.19380000       0.26963000       0.19686000       0.54051800       0.24528300      -1.93219100       0.58502516      -0.01582169      -1.88663864
Si       4.57825000       3.47658000       1.16117000       0.15934200       1.26766700      -0.81102600       0.20446138       1.34273001      -0.75912744
Si       1.09558000       0.76720000       2.75124000       0.04909300      -1.52033200       1.50719200      -0.14099135      -1.62584144       1.27434445
54
Lattice="8.579999685 0.0 0.0 0.0 8.579999685 0.0 0.0 0.0 8.5799996" Properties=species:S:1:pos:R:3:REF_forces:R:3:MACE_forces:R:3 config_type=Fe34B10Si10 REF_energy=-356.0869274 MACE_energy=-357.08798074688127 pbc="T T T"
Fe       0.92877000       1.08311000       2.12831000      -0.53214900      -1.15432400       0.53007800      -0.61671929      -1.15395480       0.47334219
Fe       1.12794000       0.45096000       7.37327000      -2.86345100       2.18226700       1.45805300      -2.74837454       2.09689035       1.42096919
Fe       0.91289000       3.61082000       1.96264000      -1.66570100       0.50807500      -4.76654600      -1.58800251       0.09161992      -4.46937139
Fe       0.97242000       3.25012000       3.83975000      -0.85629000      -1.23507100      -0.91491200      -1.08837382      -1.05603288      -0.64940679
Fe       1.43574000       3.84332000       5.84621000      -1.94378300      -0.72872400       4.94145300      -2.05425127      -0.52869846       4.71422136
Fe       0.45897000       5.99881000       1.32384000       1.86679900       1.45939200      -0.33976700       1.67259799       1.45631208      -0.16674148
Fe       0.05714000       6.25044000       6.01250000       0.66851500      -0.88142700       1.67028200       0.61485620      -0.75790265       1.73532943
Fe       1.87526000       7.05991000       7.27744000      -5.90957000       6.81146600       5.95768600      -5.61980594       6.97869913       5.78870290
Fe       4.21220000       0.80536000       3.81626000       0.44958900      -1.97725700       0.54591300       0.53539328      -1.80469730       0.45675975
Fe       2.64196000       0.75311000       5.88605000       0.80305000      -0.92688600      -1.50973400       0.50498797      -1.09082363      -1.53543711
Fe       2.51735000       4.27963000       7.86001000      -0.17185400       2.88247300       0.00075600      -0.19031060       3.06275899       0.07046814
Fe       2.46175000       4.76211000       4.38544000       2.27245000       6.36429500      -0.60000700       2.27823567       6.36912865      -0.46747137
Fe       3.99132000       4.46692000       6.09268000      -0.21521200      -1.96607600      -0.25853400      -0.33322356      -2.19212528      -0.13059498
Fe       4.03283000       6.20484000       2.50717000       0.32509400      -1.83048700       1.07686200       0.34929253      -1.78946714       1.11513238
Fe       2.62183000       8.12097000       1.25125000      -5.45108600      -1.04608100      -0.88869000      -5.59987217      -1.10000553      -0.67156566
Fe       2.34208000       7.49949000       3.33705000      -1.45221900       0.10179900       1.96325000      -1.30337619       0.10453990       1.58232891
Fe       4.67554000       0.98699000       8.35162000       1.97529500       0.95938300       0.07305200       1.70247508       0.85348798       0.33478400
Fe       4.68615000       2.28426000       1.60336000       6.03713100       4.39249100       1.56082500       6.15736466       4.36316921       1.11109271
Fe       4.95897000       4.28949000       0.91503000       1.24258400       3.77490300      -1.07876200       0.79998747       3.54232480      -1.17058196
Fe       5.62605000       3.84953000       3.25301000      -4.56775200       3.43217100       2.09526400      -4.71575049       3.43167347       1.94267013
Fe       5.63153000       5.70233000       4.67966000       0.04558900       0.36352900      -0.74034800       0.12410421      -0.05529622      -0.59437862
Fe       5.00954000       6.14620000       6.89198000       4.51113600      -2.60361300       1.43664400       4.57296906      -2.58111116       1.28279080
Fe       5.34723000       7.32984000       0.56425000       3.41130600      -7.55812200      -7.44238600       3.20013479      -7.15363923      -7.10690502
Fe       4.57141000       8.20633000       1.67615000      -2.51651100       6.57056000       9.11650700      -2.27835297       6.21666640       8.82386461
Fe       5.67084000       7.83697000       6.02451000      -0.02983000       3.57151200       0.33120700      -0.04902844       3.68635983       0.46205586
Fe       7.65837000       1.05332000       0.64336000       1.95813700       2.93603900      -3.62028800       1.78584943       2.80718029      -3.40570563
Fe       7.23579000       1.49494000       3.62009000       0.88838800      -1.50203300       3.00240400       1.06993592      -1.50084429       3.00385910
Fe       6.96409000       1.59543000       6.70415000       0.40175100      -2.57633900      -0.54943900       0.44133503      -2.38531086      -0.47057118
Fe       6.97946000       3.05325000       2.27831000       3.01329100      -2.85779700      -7.80747400       2.64805826      -2.88740615      -7.43671595
Fe       7.05854000       3.62734000       7.13255000       0.94483300       2.42104600       2.56329500       1.00023080       2.27553339       2.35725286
Fe       7.47490000       4.49325000       0.92243000      -3.13561000       0.06366500       0.11142200      -2.80828004       0.41138200      -0.12968415
Fe       7.76499000       5.40883000       4.05655000       3.42051700      -2.49950500       1.10150300       3.63688583      -2.67123762       1.15095414
Fe       6.91686000       6.16423000       2.38917000      -4.34160700       0.52717700      -3.24358900      -4.38203433       0.87509145      -3.25519129
Fe       7.31773000       7.39473000       4.73130000      -1.41907300       3.06948200       1.38572900      -1.46180950       2.97770517       1.32899909
B        1.63947000       5.44017000       2.85377000      -1.37965300       1.67099600      -0.34434500      -1.41571327       1.76580668      -0.51786767
B        3.47444000       1.29905000       1.69513000      -6.04542900      -7.46227000      -1.52467000      -6.13682960      -6.98888450      -1.29924200
B        2.31673000       1.42955000       3.77944000      -1.85652800      -2.14982900       3.21956500      -1.85129268      -1.94002454       3.28401559
B        3.17088000       0.01260000       8.16689000      -2.14308300      -0.12737100      -3.63430700      -2.08509855       0.13685390      -3.46776828
B        2.48887000       2.23189000       2.44876000      -1.30373000       3.96631200      -0.94871100      -0.92264052       3.67567162      -1.23559050
B        3.55016000       3.21990000       0.17024000       2.13469500      -3.52588700       0.23974700       2.16939315      -3.60635121       0.38547991
B        3.12966000       3.07291000       4.24572000      -6.99085300       0.34377600      -0.16579100      -6.82613289       0.09832907      -0.16698792
B        2.38358000       5.95301000       6.34325000       2.25901800      -8.76611800      -6.31465800       2.12181033      -9.07032548      -6.44412130
B        4.46260000       2.62992000       4.23823000       7.08507900      -1.75449200       0.40993300       6.93924904      -1.82391711       0.36482242
B        7.51183000       3.59374000       3.85724000       1.49621300      -1.20378300       3.39561400       1.49322539      -1.00269408       3.23343105
Si       0.50050000       1.66927000       5.10425000      -1.02554400      -2.67263500       2.61432900      -0.78497106      -2.97601506       2.54321718
Si       0.41923000       4.50138000       8.15701000       0.82744200      -0.47721100      -2.57541600       1.11631057      -0.44059523      -2.76147933
Si       2.90131000       4.25049000       1.93860000       2.71957100       0.04497600      -0.88170100       2.68939204       0.00031629      -1.01731710
Si       3.74353000       6.85388000       5.19884000      -1.20766000       1.80214700      -2.20114300      -1.08352168       1.94568297      -2.06438032
Si       3.54209000       6.47938000       8.21357000      -0.45014500      -1.75854100       4.24377300      -0.57524171      -2.01173860       4.41889592
Si       4.55252000       1.74669000       6.40118000       0.28733400       0.20348600      -1.69136000       0.29223038       0.23821509      -1.66849735
Si       5.87020000       3.30923000       5.41310000       1.93974000       0.55942400      -1.14043100       1.69127116       0.82044224      -1.26608993
Si       6.68392000       0.09389000       2.07850000      -2.78148600      -1.30329400       2.70552900      -2.56975043      -1.24085841       2.86087379
Si       7.30980000       7.36953000       0.08595000       4.18267400      -0.22507900      -1.67891000       4.44654259      -0.36790468      -1.75810682
Si       8.41387000       7.50606000       2.97540000       5.08859000       1.78741200      -0.88875800       5.03463921       1.89602125      -0.91854233
54
Lattice="8.579999685 0.0 0.0 0.0 8.579999685 0.0 0.0 0.0 8.5799996" Properties=species:S:1:pos:R:3:REF_forces:R:3:MACE_forces:R:3 config_type=Fe34B10Si10 REF_energy=-359.84864784 MACE_energy=-360.41904877483853 pbc="T T T"
Fe       0.39531000       2.37288000       0.87042000       3.27925500       2.43832800      -1.60261100       3.18177938       2.60385892      -1.70062978
Fe       0.75383000       1.65209000       3.11094000       1.30783500      -0.34615400      -0.09267000       1.38552116      -0.68151419       0.04514172
Fe       1.33201000       3.79282000       7.26231000      -2.40668100      -1.18131200       0.32245500      -2.54661738      -1.18485623       0.20416790
Fe       0.64436000       4.41396000       2.97573000       2.42004200      -2.26182600       0.38963900       2.46250093      -2.06123631       0.21470422
Fe       0.14751000       6.42079000       3.51005000      -3.07002100       1.32407200      -2.30638400      -3.18575161       1.33280158      -2.49085671