54
Lattice="8.579999685 0.0 0.0 0.0 8.579999685 0.0 0.0 0.0 8.5799996" Properties=species:S:1:pos:R:3:REF_forces:R:3:MACE_forces:R:3 config_type=Fe34B10Si10 REF_energy=-352.89092233 MACE_energy=-353.33894934390923 pbc="T T T"
Fe       1.46495000       0.71583000       1.12880000       3.73230100      -3.41607500      -3.76209700       3.67826407      -3.49167052      -3.54364374
Fe       0.56244000       2.07917000       1.96452000      -3.31290700       4.06628900       2.54508600      -3.22939700       3.95963619       2.33952706
Fe       0.86636000       2.12990000       5.00906000     -10.85567700      -2.87102900      12.20968700     -10.92975448      -2.95476132      12.21557888
Fe       0.24697000       2.61233000       7.83061000      -0.37811800      -2.03816900      -0.08744800      -0.40652033      -1.89167830       0.07699593
Fe       0.35437000       4.66395000       8.16447000      -1.30300600       1.62250000       0.84662400      -1.33867198       1.61115967       0.77983477
Fe       0.83543000       8.00840000       3.01492000       5.54921000      -2.55787300       0.52513800       5.70386324      -2.53670698       0.39522494
Fe       2.03952000       7.84431000       6.63062000      -4.28706100       1.82495200      -1.68802900      -4.07532861       1.96457701      -1.63087665
Fe       3.34318000       0.11090000       2.96052000      -0.46571400      -0.35056300       0.37864800      -0.51237095      -0.23103676       0.46856540
Fe       3.26317000       2.11539000       1.48699000      -3.47884800      -0.03222100       0.61542300      -3.39986155      -0.29516630       0.17628659
Fe       4.14313000       2.75755000       3.31065000      -0.71378000      -2.73118300       1.93004800      -0.61822671      -2.41105228       1.87078340
Fe       2.55051000       2.67374000       7.19710000      -2.55215900      -0.93589000       1.77261600      -2.31158014      -1.13391651       1.71416442
Fe       3.61327000       2.86500000       5.46497000       1.55763200       0.20514300      -0.56676300       1.46791899       0.28235689      -0.28580281
Fe       2.62400000       4.72550000       1.39174000      -1.08585200      -1.19598700       0.59645400      -1.35351369      -1.00399992       0.69316794
Fe       2.20317000       5.21693000       3.87451000      -3.92870900      -4.38103900      -4.92199500      -3.85600710      -4.37139452      -4.96927221
Fe       3.93082000       4.37819000       8.08226000       1.07616800       0.44807800      -0.99700400       1.01443515       0.29911037      -0.93874698
Fe       2.44961000       7.01753000       1.08943000       0.32119000      -1.55635000       3.27006500       0.43892074      -1.61793788       3.26681996
Fe       3.02500000       6.15780000       5.08193000      -1.08486800       1.64126100       3.95415400      -0.62765263       1.63993096       4.04399771
Fe       5.77712000       0.44616000       0.16142000      -2.43333700       0.07175000       4.13474700      -2.47937113       0.41382400       4.21655085
Fe       5.66964000       0.14892000       2.95259000      -3.67617900       1.90971100       0.12919700      -3.65918741       1.64182348       0.32413447
Fe       5.39484000       2.66317000       1.55162000       4.08183700      -3.39937100       3.88213200       4.03703247      -3.65573911       4.04521498
Fe       5.91309000       3.40423000       8.31953000       8.90196200       5.48305700      -2.72562400       8.70199055       5.44287411      -2.69912200
Fe       4.96126000       4.63305000       3.41410000      -3.60269200      -2.00302700       2.25051900      -3.73800765      -2.21185332       2.37924901
Fe       5.11347000       6.81217000       1.78872000      -0.87770500       0.06714300      -1.61156800      -0.70501298       0.07871286      -1.56992007
Fe       5.00950000       6.45991000       8.24507000      -2.30619500      -0.19808200      -1.52355700      -2.28541960       0.01437562      -1.68041821
Fe       4.64263000       7.71190000       5.75084000       2.50156800       4.23919200      -1.55456800       2.60483050       4.28267436      -1.58938193
Fe       7.32285000       0.33022000       5.03535000      -0.99210900      -0.59745100       4.73628300      -1.02656763      -0.38000991       4.79704394
Fe       6.75330000       1.32958000       7.05071000       0.53851300       2.01290400       0.36400700       0.55852498       1.82705633       0.29375675
Fe       6.82686000       2.53028000       3.66692000      -0.08907100      -0.12987400      -0.26318300      -0.05380829      -0.20760344      -0.24183002
Fe       6.83617000       5.56618000       0.59386000       1.74434500       1.47371700      -3.32847200       1.81829357       1.63381933      -3.43300813
Fe       8.27091000       4.29855000       2.87718000       3.23308900       0.33980500       1.37352500       3.20285532       0.22211881       1.31745637
Fe       6.58774000       4.90718000       4.97515000      -1.87594500       0.58060600      -0.05143700      -2.10674714       0.62512046      -0.30899583
Fe       6.86773000       6.79187000       3.27473000       1.52763600      -2.76254700       0.67579100       1.38925659      -2.42215245       0.38210138
Fe       8.09083000       8.29691000       0.84396000      -4.18921500      -1.95965200       9.56442300      -4.17326842      -2.32237949       9.67426228
Fe       6.62133000       7.67903000       7.47205000      -3.65417600       1.51975600      -3.32990400      -3.90345490       1.24414469      -3.51423348
B        3.45077000       6.81738000       6.75435000       2.04131500      -2.79808300       3.80923700       1.92389943      -2.71434112       3.94204022
B        4.67436000       1.10514000       4.73414000       0.75036200       0.95391600      -0.52852700       0.82575429       0.87781831      -0.46512873
B        6.18153000       2.20088000       5.47737000      -4.49435700      -3.20609500      -2.27763700      -4.70579010      -3.14561900      -2.47574195
B        5.08133000       4.10197000       6.35983000       0.35152900       0.25548900      -0.65354500       0.57117698       0.33379037      -0.62329121
B        4.48663000       4.29393000       1.40792000      -0.27448100       1.04603100       0.21283300      -0.26021713       1.22065768       0.16344062
B        4.96286000       5.88068000       6.14703000       0.60492000      -1.85032800       0.29314600       0.61960695      -1.93170653       0.13146326
B        8.17242000       5.65216000       5.55863000       1.00443800       0.65677900      -0.69824300       1.01196107       0.72146986      -0.31500069
B        7.98743000       6.92663000       6.60530000       5.86774900       2.58695800      -4.05103700       5.84250863       2.47649083      -3.73974720
B        7.10769000       5.72812000       6.91109000      -2.33709700      -3.34606800       1.34633400      -2.30698938      -3.51772425       1.30219832
B        7.81665000       6.81498000       8.33858000       5.04350100      -2.41043400       0.97359300       5.15935909      -2.42416404       0.74451264
Si       0.06983000       0.14925000       7.74742000       4.12649000       2.60901100      -8.87608100       3.95466887       2.64320128      -8.85704674
Si       1.93337000       2.41223000       3.74634000      10.14534600       2.98113100     -12.18526000      10.23125837       3.10586220     -12.02137202
Si       0.75978000       6.02813000       1.69309000      -4.13401100      -0.74920300       1.02787300      -4.13247489      -0.87045758       1.02447035
Si       2.22023000       5.10313000       7.16329000      -1.58663400       1.19675500      -1.89967800      -1.77990024       1.15632983      -1.93150210
Si       3.27754000       8.17117000       8.35443000       4.04667900       4.58101600      -2.24829100       3.90100774       4.54249144      -2.45872481
Si       4.48145000       2.18337000       8.34202000      -5.72220500      -5.96162700      -4.99603400      -5.48477722      -5.81997216      -5.15998300
Si       6.36439000       4.54151000       2.12641000       2.28764700      -2.33178900       1.39384200       2.58287101      -2.23407443       1.27296141
Si       4.52267000       6.51460000       3.75633000       0.42177200       5.22743800       1.25328700       0.15822652       5.36606884       1.39050171
Si       7.68278000       0.22257000       3.11016000      -0.17295300       4.89916800      -3.86478000      -0.30261063       4.77528469      -3.97520912
Si       7.35363000       3.38410000       6.13231000       4.40786200       1.27045000       2.62604800       4.36400478       1.39433763       2.98569405
54
Lattice="8.579999685 0.0 0.0 0.0 8.579999685 0.0 0.0 0.0 8.5799996" Properties=species:S:1:pos:R:3:REF_forces:R:3:MACE_forces:R:3 config_type=Fe34B10Si10 REF_energy=-354.71875992 MACE_energy=-355.4063987936419 pbc="T T T"
Fe       0.43313000       1.19321000       2.96848000       1.47291300       2.99028000       0.61180900       1.62132876       2.97900776       0.32499766
Fe       0.91365000       1.12516000       8.09995000       2.76260400      -2.00335600       1.20968300       2.56097782      -2.11928337       1.11147728
Fe       1.17142000       2.67870000       5.23446000      -1.90323000       6.04651700       0.58026800      -1.69296836       6.28275375       0.61840415
Fe       0.60772000       3.85484000       0.87278000       2.66909500       4.89444800       4.53699300       2.65991487       5.10803704       4.22864275
Fe       1.41565000       3.44858000       3.01161000      -0.29549500       2.03729500      -0.74017400      -0.27343509       1.93092266      -0.67796206
Fe       0.04226000       2.91249000       8.09734000      -3.39897200      -2.84207300      -2.69442200      -3.07468779      -2.75715711      -2.47157037
Fe       1.33282000       7.09057000       5.22634000      -0.45239700      -1.35392500       0.92503500      -0.22250075      -1.50630851       0.82466504
Fe       2.06045000       7.92051000       0.98063000      -3.11321000      -0.30108300      -2.49280600      -3.24073095      -0.52954962      -2.32882720
Fe       2.03627000       8.24295000       3.50701000      -1.42216600       4.38122900       0.88517600      -1.53542326       4.19670204       0.55873927
Fe       0.01253000       8.02686000       7.00667000       2.58679700       0.98610200     -11.80201700       2.50780183       0.83000350     -11.93398018
Fe       3.00353000       0.57289000       6.13981000      -1.03922300       0.18357300       0.93137300      -0.71400938      -0.01893344       1.08477446
Fe       3.69949000       2.65196000       7.51811000       2.76433000      -4.34399200      -3.80269000       2.57692638      -4.15746980      -3.65417800
Fe       2.94478000       6.44154000       3.03987000       7.21319500      -3.66655800      -1.17614100       7.12584156      -3.38716546      -0.93893683
Fe       2.94309000       5.75189000       6.64956000      -6.24071800      -0.74678300       3.86021800      -6.56416736      -0.75396940       3.88474226
Fe       3.71160000       8.39321000       1.86324000       2.24845700      -0.43546600       0.28887200       2.36952199      -0.25306430       0.54081107
Fe       4.07810000       8.43915000       4.32840000       2.88035800       1.28304800      -0.49181300       2.93357793       1.47367008      -0.80236255
Fe       5.57499000       0.73262000       6.31633000      -3.12774100      -1.68249800      -0.98058200      -2.94528773      -1.73073205      -1.02773920
Fe       4.70712000       1.94493000       1.65492000      -2.04675700       4.97917500      -3.67899600      -2.14230259       4.83691609      -3.39946035
Fe       4.73401000       4.18392000       1.24748000       0.71501700       1.80608500      -0.06999200       0.69462372       1.99129109      -0.15033160
Fe       4.56687000       4.22266000       4.39618000       0.73801700       3.32591500      -2.10569900       0.58979002       3.46947607      -2.30088246
Fe       4.51224000       4.61167000       7.05684000       2.53211900      -0.41024200       0.53825400       2.97813714      -0.68299186       0.64162780
Fe       6.32808000       6.81945000       4.24288000      -3.20445400      -0.33519400      -1.28892300      -2.84510451      -0.28060064      -1.07097349
Fe       6.22240000       7.17309000       0.16230000      -3.30904600      -2.75215800       1.90373500      -3.54056571      -2.98359640       1.94241115
Fe       4.54224000       7.44382000       7.03838000       0.17895600      -5.02037800      -8.74618400       0.15117811      -5.29726602      -8.84106791
Fe       4.73272000       8.55832000       8.35561000      -0.10588400       8.96287400       6.54083400      -0.25042563       9.43052915       6.35041604
Fe       7.67285000       2.82429000       2.17742000      -2.12886900      -0.76272600      -2.06587500      -2.12721579      -0.72436080      -1.92252426
Fe       6.74071000       1.77406000       4.33655000       0.47479500       0.50025500      -0.42349800       0.13141154       0.51560959      -0.54197657
Fe       7.16362000       1.61896000       6.68131000       5.11373900       1.83737400       0.70818800       4.91746079       1.66084208       0.63635949
Fe       6.73653000       4.13840000       7.84564000       0.19062300       0.32905600       3.59274800       0.35015216       0.46168218       3.67150101
Fe       6.61248000       5.35948000       2.44590000       0.96755600      -0.77403900      -0.47053600       0.90178268      -0.76146836      -0.40742598
Fe       8.39074000       4.95678000       4.82580000       0.50677700       3.21370700       1.22596300       0.56693384       3.15350975       1.08355731
Fe       6.62275000       6.29700000       6.29237000       0.91106900      -0.58785400       1.74696000       0.85172202      -0.46658152       1.51923398
Fe       8.00875000       8.14674000       2.12563000      -1.25903800      -1.94608200      -3.37077000      -0.86050490      -1.95667661      -3.53741422
Fe       7.96861000       8.10559000       4.08816000       1.24434400       0.03207600       4.40361200       0.66899774      -0.03921221       4.62589310
B        3.14587000       1.61638000       2.59818000      -3.96044800      -1.57388800      -2.24367700      -4.09722840      -1.54308176      -2.22014000
B        4.07212000       1.93087000       3.78701000       0.55534200       0.12762300      -3.25123200       0.40669012      -0.02259012      -3.34934431
B        2.24412000       1.90783000       4.05913000      -1.80380000      -9.70850100      -5.48536600      -1.85881284      -9.89282840      -5.58016488
B        2.90130000       3.06657000       4.45062000       2.48509300       7.60479000      -1.50334300       2.78720938       7.11902348      -1.38268760
B        2.82587000       3.80138000       5.80651000       0.21675600       2.27927400       3.92227300       0.26560403       2.13159331       3.94678621
B        2.60929000       5.04297000       1.66311000       0.12617300      -0.77075900      -0.46531300      -0.02737106      -0.94931555      -0.48584180
B        2.47198000       4.95014000       4.32601000      -0.76752800      -1.31946700       0.35153300      -0.91444900      -1.14588367       0.35492139
B        2.73354000       7.81887000       7.66829000      -1.47869400      -0.15377200       0.00458000      -1.42657802      -0.13218322       0.09309232
B        5.68071000       2.28134000       7.79544000      -0.95924500       0.41857400       1.11780500      -1.06217413       0.37499774       1.11470604
B        7.77536000       3.70665000       3.76574000      -0.44877700      -1.48394500      -0.38974400      -0.48907680      -1.38955048      -0.18034364
Si       0.79518000       0.92195000       5.77957000      -1.66645900      -4.94136200      -1.10925300      -1.64256996      -5.07504953      -0.92277408
Si       0.88055000       4.20706000       6.73551000       1.15626000       3.58432200      -0.32349000       1.13011311       3.69663191      -0.29467304
Si       1.15025000       6.44729000       2.43826000      -7.77651300      -1.83655100      -1.54918700      -7.83079224      -1.67010700      -1.74887171
Si       2.82820000       3.29548000       0.50208000      -4.05499500       1.58525200       5.32597100      -4.11949757       1.39972847       5.19740760
Si       4.14031000       6.38272000       0.30005000      -2.16949800      -2.44928300       2.57761000      -2.30808988      -2.37032770       2.44845914
Si       3.68345000       6.43010000       5.01209000       3.98893100       0.98565200      -2.13453700       3.92105840       1.19946819      -2.03645344
Si       5.73751000       0.59059000       2.53265000       5.08228400      -4.90021500       2.23852200       5.18218330      -4.98305832       2.52522726
Si       4.51163000       2.47994000       5.36819000       2.60737700      -2.86786400       7.12589500       2.74261769      -2.59183080       7.29351807
Si       6.43436000       3.75222000       5.86206000       1.38008400       0.66155200      -3.64612400       1.50372642       0.67630344      -3.77778029
Si       8.06432000       7.52318000       8.55473000       2.36409700      -3.06603600      11.34847700       2.70868635      -2.74650534      11.36431618
18
Lattice="6.5 0.0 0.0 0.0 6.5 0.0 0.0 0.0 6.5" Properties=species:S:1:pos:R:3:REF_forces:R:3:MACE_forces:R:3 config_type=Fe12B3Si3 REF_energy=-113.87843945 MACE_energy=-112.42743549538122 pbc="T T T"
Fe       5.40234000       5.43492000       1.53729000      -1.39532100       2.04028400       0.71142300      -1.17419941       2.04523064       0.79200855
Fe       2.09750000       2.10361000       0.54730000       2.35673700      -0.33103000       1.27254800       2.70300962      -0.24172789       1.39905778
Fe       2.84360000       1.73250000       3.81271000       2.28004000      -1.18251600      -0.27344700       2.25212231      -1.08331175      -0.33027600
Fe       0.77541000       4.93717000       1.04317000       1.56096300      -3.83372900       1.76362000       1.54165491      -3.65931498       1.57051335
Fe       0.07665000       3.70431000       3.74351000      -0.75952900      -0.39175400      -2.23189700      -0.90459382      -0.48031471      -2.35700750
Fe       4.77171000       3.58949000       4.78220000      -1.99219600      -4.62409700       0.48420500      -1.78968564      -4.54171362       0.43719043
Fe       4.12430000       1.49867000       1.46476000       0.29771700      -2.38794700       0.28396300       0.35478978      -2.68768158       0.15910079
Fe       0.95387000       5.17746000       5.28728000      -0.57085000      -0.50160400      -1.80733600      -0.83725989      -0.68134805      -1.36662329
Fe       1.93602000       3.09888000       2.36598000      -0.08855100       0.43128300      -0.27209000      -0.24132678       0.56340516      -0.38285484
Fe       5.69037000       1.28357000       4.20026000      -0.40866000      -0.49067900       0.18976600      -0.70434268      -0.35548611       0.25020856
Fe       1.94321000       2.86141000       5.39871000      -0.55906500       0.73218900      -1.80086600      -0.66955515       1.08341080      -2.19302614
Fe       4.33122000       5.38124000       5.25469000      -0.73272900       4.56545400       1.52017900      -0.62272331       4.48251393       1.58511487
B        0.37598000       1.64060000       1.21420000      -3.21263000       2.85095800       0.76078000      -3.17860759       2.77005119       1.03489522
B        1.88110000       4.04794000       3.96741000       2.48956600       2.45119300      -0.32261600       2.52320547       2.27510716      -0.29557144
B        3.63878000       0.94242000       5.41981000      -0.01444500       0.67937600       0.95779200       0.03517245       0.78831821       1.07071881
Si       1.19380000       0.26963000       0.19686000       0.54051800       0.24528300      -1.93219100       0.61307059      -0.00849856      -1.88820696
Si       4.57825000       3.47658000       1.16117000       0.15934200       1.26766700      -0.81102600       0.21582133       1.36048987      -0.75460879
Si       1.09558000       0.76720000       2.75124000       0.04909300      -1.52033200       1.50719200      -0.11655220      -1.62912971       1.26936659
54
Lattice="8.579999685 0.0 0.0 0.0 8.579999685 0.0 0.0 0.0 8.5799996" Properties=species:S:1:pos:R:3:REF_forces:R:3:MACE_forces:R:3 config_type=Fe34B10Si10 REF_energy=-356.0869274 MACE_energy=-357.1587039942075 pbc="T T T"
Fe       0.92877000       1.08311000       2.12831000      -0.53214900      -1.15432400       0.53007800      -0.63853289      -1.15677176       0.46295925
Fe       1.12794000       0.45096000       7.37327000      -2.86345100       2.18226700       1.45805300      -2.72658512       2.05354228       1.42133397
Fe       0.91289000       3.61082000       1.96264000      -1.66570100       0.50807500      -4.76654600      -1.58228922       0.14179811      -4.52242360
Fe       0.97242000       3.25012000       3.83975000      -0.85629000      -1.23507100      -0.91491200      -1.12821734      -1.07626969      -0.60710868
Fe       1.43574000       3.84332000       5.84621000      -1.94378300      -0.72872400       4.94145300      -2.04690638      -0.53185360       4.74294716
Fe       0.45897000       5.99881000       1.32384000       1.86679900       1.45939200      -0.33976700       1.68187745       1.46076255      -0.15679056
Fe       0.05714000       6.25044000       6.01250000       0.66851500      -0.88142700       1.67028200       0.61258132      -0.74990513       1.70717123
Fe       1.87526000       7.05991000       7.27744000      -5.90957000       6.81146600       5.95768600      -5.62754015       6.98650070       5.78276256
Fe       4.21220000       0.80536000       3.81626000       0.44958900      -1.97725700       0.54591300       0.53859768      -1.81976409       0.45346047
Fe       2.64196000       0.75311000       5.88605000       0.80305000      -0.92688600      -1.50973400       0.50800520      -1.08576879      -1.50823301
Fe       2.51735000       4.27963000       7.86001000      -0.17185400       2.88247300       0.00075600      -0.18206714       3.06130386       0.05865036
Fe       2.46175000       4.76211000       4.38544000       2.27245000       6.36429500      -0.60000700       2.30815873       6.36878844      -0.49488696
Fe       3.99132000       4.46692000       6.09268000      -0.21521200      -1.96607600      -0.25853400      -0.30831848      -2.18870149      -0.14029681
Fe       4.03283000       6.20484000       2.50717000       0.32509400      -1.83048700       1.07686200       0.37748947      -1.77506529       1.10291959
Fe       2.62183000       8.12097000       1.25125000      -5.45108600      -1.04608100      -0.88869000      -5.57768020      -1.10929989      -0.67749324
Fe       2.34208000       7.49949000       3.33705000      -1.45221900       0.10179900       1.96325000      -1.29869835       0.10316328       1.58665261
Fe       4.67554000       0.98699000       8.35162000       1.97529500       0.95938300       0.07305200       1.71364293       0.85686975       0.31675250
Fe       4.68615000       2.28426000       1.60336000       6.03713100       4.39249100       1.56082500       6.17346491       4.36320550       1.12266000
Fe       4.95897000       4.28949000       0.91503000       1.24258400       3.77490300      -1.07876200       0.78986537       3.55060961      -1.17567368
Fe       5.62605000       3.84953000       3.25301000      -4.56775200       3.43217100       2.09526400      -4.70164996       3.45092577       1.91310997
Fe       5.63153000       5.70233000       4.67966000       0.04558900       0.36352900      -0.74034800       0.11511778      -0.04961219      -0.59620861
Fe       5.00954000       6.14620000       6.89198000       4.51113600      -2.60361300       1.43664400       4.56039475      -2.55463727       1.29184716
Fe       5.34723000       7.32984000       0.56425000       3.41130600      -7.55812200      -7.44238600       3.24423746      -7.12725417      -7.09689323
Fe       4.57141000       8.20633000       1.67615000      -2.51651100       6.57056000       9.11650700      -2.34487975       6.16574334       8.80647448
Fe       5.67084000       7.83697000       6.02451000      -0.02983000       3.57151200       0.33120700      -0.05892168       3.67345316       0.45788680
Fe       7.65837000       1.05332000       0.64336000       1.95813700       2.93603900      -3.62028800       1.80437183       2.80996300      -3.41177956
Fe       7.23579000       1.49494000       3.62009000       0.88838800      -1.50203300       3.00240400       1.07089399      -1.49983911       2.99834518
Fe       6.96409000       1.59543000       6.70415000       0.40175100      -2.57633900      -0.54943900       0.44059818      -2.39509482      -0.48345617
Fe       6.97946000       3.05325000       2.27831000       3.01329100      -2.85779700      -7.80747400       2.63028180      -2.87886967      -7.40904593
Fe       7.05854000       3.62734000       7.13255000       0.94483300       2.42104600       2.56329500       0.99880862       2.28843994       2.36389001
Fe       7.47490000       4.49325000       0.92243000      -3.13561000       0.06366500       0.11142200      -2.80842762       0.40321179      -0.13185463
Fe       7.76499000       5.40883000       4.05655000       3.42051700      -2.49950500       1.10150300       3.60751964      -2.66056431       1.14235249
Fe       6.91686000       6.16423000       2.38917000      -4.34160700       0.52717700      -3.24358900      -4.36324965       0.84951535      -3.24823597
Fe       7.31773000       7.39473000       4.73130000      -1.41907300       3.06948200       1.38572900      -1.44889059       2.98026098       1.32658142
B        1.63947000       5.44017000       2.85377000      -1.37965300       1.67099600      -0.34434500      -1.44107491       1.75059659      -0.54461097
B        3.47444000       1.29905000       1.69513000      -6.04542900      -7.46227000      -1.52467000      -6.12248711      -6.96829387      -1.28291339
B        2.31673000       1.42955000       3.77944000      -1.85652800      -2.14982900       3.21956500      -1.82779638      -1.94203300       3.29980117
B        3.17088000       0.01260000       8.16689000      -2.14308300      -0.12737100      -3.63430700      -2.09565117       0.12838717      -3.46778319
B        2.48887000       2.23189000       2.44876000      -1.30373000       3.96631200      -0.94871100      -0.90382308       3.69290605      -1.22888299
B        3.55016000       3.21990000       0.17024000       2.13469500      -3.52588700       0.23974700       2.15540157      -3.58357457       0.38277849
B        3.12966000       3.07291000       4.24572000      -6.99085300       0.34377600      -0.16579100      -6.84261556       0.10812174      -0.18030699
B        2.38358000       5.95301000       6.34325000       2.25901800      -8.76611800      -6.31465800       2.11173477      -9.05501133      -6.41835876
B        4.46260000       2.62992000       4.23823000       7.08507900      -1.75449200       0.40993300       6.95098253      -1.83146462       0.36252043
B        7.51183000       3.59374000       3.85724000       1.49621300      -1.20378300       3.39561400       1.49811146      -1.01655665       3.22967813
Si       0.50050000       1.66927000       5.10425000      -1.02554400      -2.67263500       2.61432900      -0.78447637      -2.97737976       2.56335740
Si       0.41923000       4.50138000       8.15701000       0.82744200      -0.47721100      -2.57541600       1.10890161      -0.43961082      -2.75364605
Si       2.90131000       4.25049000       1.93860000       2.71957100       0.04497600      -0.88170100       2.69788789       0.00022000      -1.02138918
Si       3.74353000       6.85388000       5.19884000      -1.20766000       1.80214700      -2.20114300      -1.07175610       1.93257275      -2.07888438
Si       3.54209000       6.47938000       8.21357000      -0.45014500      -1.75854100       4.24377300      -0.57921932      -2.01981279       4.40903753
Si       4.55252000       1.74669000       6.40118000       0.28733400       0.20348600      -1.69136000       0.28353283       0.22702068      -1.64437197
Si       5.87020000       3.30923000       5.41310000       1.93974000       0.55942400      -1.14043100       1.67815572       0.82307988      -1.23117656
Si       6.68392000       0.09389000       2.07850000      -2.78148600      -1.30329400       2.70552900      -2.56284700      -1.24298278       2.85036160
Si       7.30980000       7.36953000       0.08595000       4.18267400      -0.22507900      -1.67891000       4.39759170      -0.38407778      -1.74527150
Si       8.41387000       7.50606000       2.97540000       5.08859000       1.78741200      -0.88875800       5.01639431       1.88910693      -0.89831536
54
Lattice="8.579999685 0.0 0.0 0.0 8.579999685 0.0 0.0 0.0 8.5799996" Properties=species:S:1:pos:R:3:REF_forces:R:3:MACE_forces:R:3 config_type=Fe34B10Si10 REF_energy=-359.84864784 MACE_energy=-360.4933457172484 pbc="T T T"
Fe       0.39531000       2.37288000       0.87042000       3.27925500       2.43832800      -1.60261100       3.17820498       2.63105835      -1.70594136
Fe       0.75383000       1.65209000       3.11094000       1.30783500      -0.34615400      -0.09267000       1.36552432      -0.71616720       0.04463818
Fe       1.33201000       3.79282000       7.26231000      -2.40668100      -1.18131200       0.32245500      -2.52917886      -1.17932697       0.20739689
Fe       0.64436000       4.41396000       2.97573000       2.42004200      -2.26182600       0.38963900       2.45728675      -2.06391224       0.22114865
Fe       0.14751000       6.42079000       3.51005000      -3.07002100       1.32407200      -2.30638400      -3.16932903       1.32908260      -2.48225288