54
Lattice="8.579999685 0.0 0.0 0.0 8.579999685 0.0 0.0 0.0 8.5799996" Properties=species:S:1:pos:R:3:REF_forces:R:3:MACE_forces:R:3 config_type=Fe34B10Si10 REF_energy=-352.89092233 MACE_energy=-352.382526663375 pbc="T T T"
Fe       1.46495000       0.71583000       1.12880000       3.73230100      -3.41607500      -3.76209700       3.31980349      -3.15995441      -2.96556269
Fe       0.56244000       2.07917000       1.96452000      -3.31290700       4.06628900       2.54508600      -3.46858412       3.80152833       2.04753300
Fe       0.86636000       2.12990000       5.00906000     -10.85567700      -2.87102900      12.20968700     -10.13243170      -2.54723294      11.79525959
Fe       0.24697000       2.61233000       7.83061000      -0.37811800      -2.03816900      -0.08744800      -0.44205506      -2.28399974       0.10697811
Fe       0.35437000       4.66395000       8.16447000      -1.30300600       1.62250000       0.84662400      -1.32060690       2.11026318       0.84993722
Fe       0.83543000       8.00840000       3.01492000       5.54921000      -2.55787300       0.52513800       5.50695051      -2.76003150       0.86387313
Fe       2.03952000       7.84431000       6.63062000      -4.28706100       1.82495200      -1.68802900      -4.23249009       2.12947847      -1.68312364
Fe       3.34318000       0.11090000       2.96052000      -0.46571400      -0.35056300       0.37864800      -0.63723573      -0.01309029       0.66348596
Fe       3.26317000       2.11539000       1.48699000      -3.47884800      -0.03222100       0.61542300      -3.38200381      -0.05500816      -0.29023447
Fe       4.14313000       2.75755000       3.31065000      -0.71378000      -2.73118300       1.93004800      -0.32323759      -2.23385837       1.79511195
Fe       2.55051000       2.67374000       7.19710000      -2.55215900      -0.93589000       1.77261600      -2.17411545      -0.89090669       1.83223374
Fe       3.61327000       2.86500000       5.46497000       1.55763200       0.20514300      -0.56676300       1.38645184       0.45287151      -0.55422577
Fe       2.62400000       4.72550000       1.39174000      -1.08585200      -1.19598700       0.59645400      -0.94484592      -1.21982207       0.55153342
Fe       2.20317000       5.21693000       3.87451000      -3.92870900      -4.38103900      -4.92199500      -3.81041838      -4.53013775      -5.44294214
Fe       3.93082000       4.37819000       8.08226000       1.07616800       0.44807800      -0.99700400       1.05081212       0.52996203      -0.42542232
Fe       2.44961000       7.01753000       1.08943000       0.32119000      -1.55635000       3.27006500       0.70394416      -1.27949327       2.88740188
Fe       3.02500000       6.15780000       5.08193000      -1.08486800       1.64126100       3.95415400      -0.17653830       1.57970135       4.17971154
Fe       5.77712000       0.44616000       0.16142000      -2.43333700       0.07175000       4.13474700      -1.95848765       0.23434057       4.32155199
Fe       5.66964000       0.14892000       2.95259000      -3.67617900       1.90971100       0.12919700      -3.52118798       1.95424742       0.06222570
Fe       5.39484000       2.66317000       1.55162000       4.08183700      -3.39937100       3.88213200       4.02420953      -3.37251220       4.07557203
Fe       5.91309000       3.40423000       8.31953000       8.90196200       5.48305700      -2.72562400       8.36048402       5.32693331      -3.11772303
Fe       4.96126000       4.63305000       3.41410000      -3.60269200      -2.00302700       2.25051900      -3.59963053      -2.08321382       3.09604248
Fe       5.11347000       6.81217000       1.78872000      -0.87770500       0.06714300      -1.61156800      -0.66103498       0.26453857      -1.76593814
Fe       5.00950000       6.45991000       8.24507000      -2.30619500      -0.19808200      -1.52355700      -2.20547903      -0.51715672      -1.84132253
Fe       4.64263000       7.71190000       5.75084000       2.50156800       4.23919200      -1.55456800       2.83589059       4.34701023      -1.44380837
Fe       7.32285000       0.33022000       5.03535000      -0.99210900      -0.59745100       4.73628300      -0.66303757      -0.50325857       4.32189534
Fe       6.75330000       1.32958000       7.05071000       0.53851300       2.01290400       0.36400700       0.53651571       1.53367309       0.65120133
Fe       6.82686000       2.53028000       3.66692000      -0.08907100      -0.12987400      -0.26318300       0.25436424      -0.19992999      -0.46013157
Fe       6.83617000       5.56618000       0.59386000       1.74434500       1.47371700      -3.32847200       1.18013212       0.99069604      -3.32102510
Fe       8.27091000       4.29855000       2.87718000       3.23308900       0.33980500       1.37352500       3.04619905       0.15399591       1.16706564
Fe       6.58774000       4.90718000       4.97515000      -1.87594500       0.58060600      -0.05143700      -2.32160255       1.27732891      -1.21479455
Fe       6.86773000       6.79187000       3.27473000       1.52763600      -2.76254700       0.67579100       1.32311164      -2.53290226       0.47454057
Fe       8.09083000       8.29691000       0.84396000      -4.18921500      -1.95965200       9.56442300      -3.76479509      -1.51182097       9.55939918
Fe       6.62133000       7.67903000       7.47205000      -3.65417600       1.51975600      -3.32990400      -4.60502160       1.36331632      -4.10868186
B        3.45077000       6.81738000       6.75435000       2.04131500      -2.79808300       3.80923700       2.14520235      -2.97175637       3.91956723
B        4.67436000       1.10514000       4.73414000       0.75036200       0.95391600      -0.52852700       0.35504675       0.36575632      -0.44217176
B        6.18153000       2.20088000       5.47737000      -4.49435700      -3.20609500      -2.27763700      -4.42180925      -2.74767257      -2.46822746
B        5.08133000       4.10197000       6.35983000       0.35152900       0.25548900      -0.65354500       0.36487364       0.24183470      -0.32298354
B        4.48663000       4.29393000       1.40792000      -0.27448100       1.04603100       0.21283300      -0.34001106       1.18589908       0.01340736
B        4.96286000       5.88068000       6.14703000       0.60492000      -1.85032800       0.29314600       0.14950542      -1.64103013       0.39787205
B        8.17242000       5.65216000       5.55863000       1.00443800       0.65677900      -0.69824300       2.12144321       0.13885038      -0.49533243
B        7.98743000       6.92663000       6.60530000       5.86774900       2.58695800      -4.05103700       5.40315627       2.49901984      -3.00564657
B        7.10769000       5.72812000       6.91109000      -2.33709700      -3.34606800       1.34633400      -2.45771601      -3.63979078       1.47458280
B        7.81665000       6.81498000       8.33858000       5.04350100      -2.41043400       0.97359300       5.16051384      -2.65972735       0.51234138
Si       0.06983000       0.14925000       7.74742000       4.12649000       2.60901100      -8.87608100       4.10107643       2.89011006      -8.82054965
Si       1.93337000       2.41223000       3.74634000      10.14534600       2.98113100     -12.18526000       9.52976947       2.73734667     -11.20885675
Si       0.75978000       6.02813000       1.69309000      -4.13401100      -0.74920300       1.02787300      -3.79927409      -1.09406141       0.90008361
Si       2.22023000       5.10313000       7.16329000      -1.58663400       1.19675500      -1.89967800      -1.77389381       1.03980058      -1.72761736
Si       3.27754000       8.17117000       8.35443000       4.04667900       4.58101600      -2.24829100       3.62255015       4.35135753      -1.88245258
Si       4.48145000       2.18337000       8.34202000      -5.72220500      -5.96162700      -4.99603400      -5.88824127      -5.79087572      -5.03071647
Si       6.36439000       4.54151000       2.12641000       2.28764700      -2.33178900       1.39384200       2.14629538      -2.20440751       1.26330721
Si       4.52267000       6.51460000       3.75633000       0.42177200       5.22743800       1.25328700       0.30922801       5.06467052       1.05732796
Si       7.68278000       0.22257000       3.11016000      -0.17295300       4.89916800      -3.86478000      -0.22391350       4.52710746      -3.73398708
Si       7.35363000       3.38410000       6.13231000       4.40786200       1.27045000       2.62604800       4.31216902       1.35201320       2.93243445
54
Lattice="8.579999685 0.0 0.0 0.0 8.579999685 0.0 0.0 0.0 8.5799996" Properties=species:S:1:pos:R:3:REF_forces:R:3:MACE_forces:R:3 config_type=Fe34B10Si10 REF_energy=-354.71875992 MACE_energy=-352.61857990806607 pbc="T T T"
Fe       0.43313000       1.19321000       2.96848000       1.47291300       2.99028000       0.61180900       1.73717111       2.71762685       0.47061440
Fe       0.91365000       1.12516000       8.09995000       2.76260400      -2.00335600       1.20968300       2.69229698      -1.73349186       1.47818694
Fe       1.17142000       2.67870000       5.23446000      -1.90323000       6.04651700       0.58026800      -2.92800469       6.53934799       0.39673254
Fe       0.60772000       3.85484000       0.87278000       2.66909500       4.89444800       4.53699300       2.55545540       5.26301187       4.20391396
Fe       1.41565000       3.44858000       3.01161000      -0.29549500       2.03729500      -0.74017400       0.16904357       2.00348781      -0.72253612
Fe       0.04226000       2.91249000       8.09734000      -3.39897200      -2.84207300      -2.69442200      -3.66386377      -3.14365406      -3.28103807
Fe       1.33282000       7.09057000       5.22634000      -0.45239700      -1.35392500       0.92503500      -0.09202637      -1.22755830       0.57123033
Fe       2.06045000       7.92051000       0.98063000      -3.11321000      -0.30108300      -2.49280600      -3.63093138      -0.36836210      -2.79986052
Fe       2.03627000       8.24295000       3.50701000      -1.42216600       4.38122900       0.88517600      -1.56311934       3.92237647       0.82512474
Fe       0.01253000       8.02686000       7.00667000       2.58679700       0.98610200     -11.80201700       2.00508995       0.48512397     -11.70970938
Fe       3.00353000       0.57289000       6.13981000      -1.03922300       0.18357300       0.93137300      -0.50764109       0.38870725       0.74081568
Fe       3.69949000       2.65196000       7.51811000       2.76433000      -4.34399200      -3.80269000       1.86912897      -3.97240896      -3.64380669
Fe       2.94478000       6.44154000       3.03987000       7.21319500      -3.66655800      -1.17614100       7.36174783      -3.06234229      -0.63526410
Fe       2.94309000       5.75189000       6.64956000      -6.24071800      -0.74678300       3.86021800      -5.95466218      -0.81991378       4.49288985
Fe       3.71160000       8.39321000       1.86324000       2.24845700      -0.43546600       0.28887200       2.92203923      -0.28402454       0.99710539
Fe       4.07810000       8.43915000       4.32840000       2.88035800       1.28304800      -0.49181300       2.55912603       1.38995698      -0.54020510
Fe       5.57499000       0.73262000       6.31633000      -3.12774100      -1.68249800      -0.98058200      -2.94121715      -2.03397604      -1.64561552
Fe       4.70712000       1.94493000       1.65492000      -2.04675700       4.97917500      -3.67899600      -1.12418410       4.54194898      -3.91951097
Fe       4.73401000       4.18392000       1.24748000       0.71501700       1.80608500      -0.06999200       0.62203718       1.77710963       0.03541839
Fe       4.56687000       4.22266000       4.39618000       0.73801700       3.32591500      -2.10569900       0.36071302       4.26736321      -2.44342619
Fe       4.51224000       4.61167000       7.05684000       2.53211900      -0.41024200       0.53825400       2.64985193      -0.29464624       0.38288720
Fe       6.32808000       6.81945000       4.24288000      -3.20445400      -0.33519400      -1.28892300      -2.55726328      -0.43207926      -1.19916364
Fe       6.22240000       7.17309000       0.16230000      -3.30904600      -2.75215800       1.90373500      -2.70484255      -2.94330247       2.08906824
Fe       4.54224000       7.44382000       7.03838000       0.17895600      -5.02037800      -8.74618400      -0.11554421      -5.04868385      -8.01253645
Fe       4.73272000       8.55832000       8.35561000      -0.10588400       8.96287400       6.54083400      -1.00861331       8.54135792       5.48272749
Fe       7.67285000       2.82429000       2.17742000      -2.12886900      -0.76272600      -2.06587500      -2.24332580      -0.82706526      -1.83378464
Fe       6.74071000       1.77406000       4.33655000       0.47479500       0.50025500      -0.42349800       0.16151934       0.60669248      -0.65429163
Fe       7.16362000       1.61896000       6.68131000       5.11373900       1.83737400       0.70818800       4.91424396       1.91878959       1.03836600
Fe       6.73653000       4.13840000       7.84564000       0.19062300       0.32905600       3.59274800       0.23369991       1.07322056       3.64331979
Fe       6.61248000       5.35948000       2.44590000       0.96755600      -0.77403900      -0.47053600       0.59438361      -0.59750117      -0.18729542
Fe       8.39074000       4.95678000       4.82580000       0.50677700       3.21370700       1.22596300       0.71497199       2.72958452       1.09674685
Fe       6.62275000       6.29700000       6.29237000       0.91106900      -0.58785400       1.74696000       0.64486429      -0.56009508       1.65398947
Fe       8.00875000       8.14674000       2.12563000      -1.25903800      -1.94608200      -3.37077000      -1.43387305      -1.60446729      -3.66539941
Fe       7.96861000       8.10559000       4.08816000       1.24434400       0.03207600       4.40361200       0.90980747       0.16655281       4.75036240
B        3.14587000       1.61638000       2.59818000      -3.96044800      -1.57388800      -2.24367700      -4.13179537      -1.12730450      -1.69424941
B        4.07212000       1.93087000       3.78701000       0.55534200       0.12762300      -3.25123200       1.20133062      -0.82607733      -3.57178573
B        2.24412000       1.90783000       4.05913000      -1.80380000      -9.70850100      -5.48536600      -2.37159753     -10.81806616      -5.14895336
B        2.90130000       3.06657000       4.45062000       2.48509300       7.60479000      -1.50334300       3.25485282       7.13480468      -1.89366349
B        2.82587000       3.80138000       5.80651000       0.21675600       2.27927400       3.92227300       0.63301178       2.94933114       3.66191772
B        2.60929000       5.04297000       1.66311000       0.12617300      -0.77075900      -0.46531300      -0.02743306      -0.87798702      -0.60380338
B        2.47198000       4.95014000       4.32601000      -0.76752800      -1.31946700       0.35153300      -0.76852869      -1.41451784       0.58642465
B        2.73354000       7.81887000       7.66829000      -1.47869400      -0.15377200       0.00458000      -0.89366540      -0.12634762       0.18718278
B        5.68071000       2.28134000       7.79544000      -0.95924500       0.41857400       1.11780500      -0.45995131      -0.01326628       0.82639955
B        7.77536000       3.70665000       3.76574000      -0.44877700      -1.48394500      -0.38974400      -0.54965757      -1.38525442      -0.31763209
Si       0.79518000       0.92195000       5.77957000      -1.66645900      -4.94136200      -1.10925300      -1.30269695      -4.72829922      -0.88904778
Si       0.88055000       4.20706000       6.73551000       1.15626000       3.58432200      -0.32349000       0.96258724       3.51219507       0.34370350
Si       1.15025000       6.44729000       2.43826000      -7.77651300      -1.83655100      -1.54918700      -7.99306518      -1.74938094      -1.80985048
Si       2.82820000       3.29548000       0.50208000      -4.05499500       1.58525200       5.32597100      -3.75690065       1.48663353       4.92668534
Si       4.14031000       6.38272000       0.30005000      -2.16949800      -2.44928300       2.57761000      -2.43280178      -2.46747296       2.15688112
Si       3.68345000       6.43010000       5.01209000       3.98893100       0.98565200      -2.13453700       3.75416020       1.22729594      -2.14435651
Si       5.73751000       0.59059000       2.53265000       5.08228400      -4.90021500       2.23852200       4.87683874      -4.41992350       2.82605873
Si       4.51163000       2.47994000       5.36819000       2.60737700      -2.86786400       7.12589500       2.95734410      -2.93508022       7.23807537
Si       6.43436000       3.75222000       5.86206000       1.38008400       0.66155200      -3.64612400       1.03832796       0.42855402      -3.22600894
Si       8.06432000       7.52318000       8.55473000       2.36409700      -3.06603600      11.34847700       2.80156054      -3.22852269      11.08996662
18
Lattice="6.5 0.0 0.0 0.0 6.5 0.0 0.0 0.0 6.5" Properties=species:S:1:pos:R:3:REF_forces:R:3:MACE_forces:R:3 config_type=Fe12B3Si3 REF_energy=-113.87843945 MACE_energy=-120.72581586884647 pbc="T T T"
Fe       5.40234000       5.43492000       1.53729000      -1.39532100       2.04028400       0.71142300      -2.39914025       2.38182887       1.00003751
Fe       2.09750000       2.10361000       0.54730000       2.35673700      -0.33103000       1.27254800       2.76821913      -0.91269887       2.65873064
Fe       2.84360000       1.73250000       3.81271000       2.28004000      -1.18251600      -0.27344700       2.23539389      -1.35406099      -0.41283951
Fe       0.77541000       4.93717000       1.04317000       1.56096300      -3.83372900       1.76362000       2.18225465      -3.76251763       1.53832524
Fe       0.07665000       3.70431000       3.74351000      -0.75952900      -0.39175400      -2.23189700      -1.37127719      -0.49455589      -2.22201767
Fe       4.77171000       3.58949000       4.78220000      -1.99219600      -4.62409700       0.48420500      -1.39622232      -4.14675605       0.47812422
Fe       4.12430000       1.49867000       1.46476000       0.29771700      -2.38794700       0.28396300       0.35711124      -3.32828348       0.73611252
Fe       0.95387000       5.17746000       5.28728000      -0.57085000      -0.50160400      -1.80733600      -0.56698451       0.02171785      -1.25960196
Fe       1.93602000       3.09888000       2.36598000      -0.08855100       0.43128300      -0.27209000      -0.04556746       1.05081030      -0.74835555
Fe       5.69037000       1.28357000       4.20026000      -0.40866000      -0.49067900       0.18976600      -0.67652428      -0.49343569       0.28823749
Fe       1.94321000       2.86141000       5.39871000      -0.55906500       0.73218900      -1.80086600      -1.00825510       1.76179197      -2.46912214
Fe       4.33122000       5.38124000       5.25469000      -0.73272900       4.56545400       1.52017900      -0.65633312       4.24416281       1.21531255
B        0.37598000       1.64060000       1.21420000      -3.21263000       2.85095800       0.76078000      -3.09364132       2.56064971       0.05115544
B        1.88110000       4.04794000       3.96741000       2.48956600       2.45119300      -0.32261600       2.61832983       2.42735197      -0.31816685
B        3.63878000       0.94242000       5.41981000      -0.01444500       0.67937600       0.95779200       0.48289373       0.08250345       0.71107322
Si       1.19380000       0.26963000       0.19686000       0.54051800       0.24528300      -1.93219100       0.54111769       0.00528674      -1.87598259
Si       4.57825000       3.47658000       1.16117000       0.15934200       1.26766700      -0.81102600      -0.14596442       1.54375905      -0.86242167
Si       1.09558000       0.76720000       2.75124000       0.04909300      -1.52033200       1.50719200       0.17458981      -1.58755412       1.49139909
54
Lattice="8.579999685 0.0 0.0 0.0 8.579999685 0.0 0.0 0.0 8.5799996" Properties=species:S:1:pos:R:3:REF_forces:R:3:MACE_forces:R:3 config_type=Fe34B10Si10 REF_energy=-356.0869274 MACE_energy=-354.6145842455907 pbc="T T T"
Fe       0.92877000       1.08311000       2.12831000      -0.53214900      -1.15432400       0.53007800      -0.57698943      -0.72518391       0.63234481
Fe       1.12794000       0.45096000       7.37327000      -2.86345100       2.18226700       1.45805300      -2.49526868       2.32099425       1.58490111
Fe       0.91289000       3.61082000       1.96264000      -1.66570100       0.50807500      -4.76654600      -2.27279206       0.19319146      -4.56287207
Fe       0.97242000       3.25012000       3.83975000      -0.85629000      -1.23507100      -0.91491200      -0.38065163      -0.96235613      -0.12631920
Fe       1.43574000       3.84332000       5.84621000      -1.94378300      -0.72872400       4.94145300      -1.83819699      -0.79363042       4.35392628
Fe       0.45897000       5.99881000       1.32384000       1.86679900       1.45939200      -0.33976700       2.10629042       1.79833101      -0.03534533
Fe       0.05714000       6.25044000       6.01250000       0.66851500      -0.88142700       1.67028200       0.95602937      -1.18116880       1.71121252
Fe       1.87526000       7.05991000       7.27744000      -5.90957000       6.81146600       5.95768600      -5.53123401       6.75899889       5.39506899
Fe       4.21220000       0.80536000       3.81626000       0.44958900      -1.97725700       0.54591300       0.31526449      -1.52472663      -0.03219164
Fe       2.64196000       0.75311000       5.88605000       0.80305000      -0.92688600      -1.50973400       0.39455024      -0.56701977      -1.54662872
Fe       2.51735000       4.27963000       7.86001000      -0.17185400       2.88247300       0.00075600      -0.37697559       2.53399343      -0.56010636
Fe       2.46175000       4.76211000       4.38544000       2.27245000       6.36429500      -0.60000700       2.25584241       5.64547260      -1.01966596
Fe       3.99132000       4.46692000       6.09268000      -0.21521200      -1.96607600      -0.25853400      -0.61898893      -1.99354820      -0.47580866
Fe       4.03283000       6.20484000       2.50717000       0.32509400      -1.83048700       1.07686200       0.41951342      -1.78557248       0.88224032
Fe       2.62183000       8.12097000       1.25125000      -5.45108600      -1.04608100      -0.88869000      -4.78694040      -1.19556886      -0.77600005
Fe       2.34208000       7.49949000       3.33705000      -1.45221900       0.10179900       1.96325000      -1.28923839       0.04011751       2.03022448
Fe       4.67554000       0.98699000       8.35162000       1.97529500       0.95938300       0.07305200       2.20934059       0.97993638       0.41592249
Fe       4.68615000       2.28426000       1.60336000       6.03713100       4.39249100       1.56082500       6.99894640       4.54827164       1.15236880
Fe       4.95897000       4.28949000       0.91503000       1.24258400       3.77490300      -1.07876200       1.38829386       3.53873677      -1.35309464
Fe       5.62605000       3.84953000       3.25301000      -4.56775200       3.43217100       2.09526400      -4.62154329       3.59791568       1.31855566
Fe       5.63153000       5.70233000       4.67966000       0.04558900       0.36352900      -0.74034800      -0.34716147      -0.11913901      -0.71109015
Fe       5.00954000       6.14620000       6.89198000       4.51113600      -2.60361300       1.43664400       3.57164373      -2.41593463       1.36158276
Fe       5.34723000       7.32984000       0.56425000       3.41130600      -7.55812200      -7.44238600       3.09183037      -6.71684452      -7.21763391
Fe       4.57141000       8.20633000       1.67615000      -2.51651100       6.57056000       9.11650700      -2.71490075       5.66295410       9.14243760
Fe       5.67084000       7.83697000       6.02451000      -0.02983000       3.57151200       0.33120700      -0.09471388       4.26695060       0.42872032
Fe       7.65837000       1.05332000       0.64336000       1.95813700       2.93603900      -3.62028800       1.63314864       2.58922378      -3.63464176
Fe       7.23579000       1.49494000       3.62009000       0.88838800      -1.50203300       3.00240400       0.55584301      -1.25248538       3.19223924
Fe       6.96409000       1.59543000       6.70415000       0.40175100      -2.57633900      -0.54943900       0.36630942      -2.85429460      -0.45030893
Fe       6.97946000       3.05325000       2.27831000       3.01329100      -2.85779700      -7.80747400       2.65289796      -3.90136515      -6.37132023
Fe       7.05854000       3.62734000       7.13255000       0.94483300       2.42104600       2.56329500       0.89251432       2.66261125       2.07658877
Fe       7.47490000       4.49325000       0.92243000      -3.13561000       0.06366500       0.11142200      -3.18749693       0.96595547      -0.61490676
Fe       7.76499000       5.40883000       4.05655000       3.42051700      -2.49950500       1.10150300       3.46924417      -2.54617859       0.80784901
Fe       6.91686000       6.16423000       2.38917000      -4.34160700       0.52717700      -3.24358900      -4.61014283       0.06158681      -2.86355197
Fe       7.31773000       7.39473000       4.73130000      -1.41907300       3.06948200       1.38572900      -1.16491063       3.26084693       1.11196092
B        1.63947000       5.44017000       2.85377000      -1.37965300       1.67099600      -0.34434500      -1.60840914       1.66334800      -0.43339553
B        3.47444000       1.29905000       1.69513000      -6.04542900      -7.46227000      -1.52467000      -5.73281838      -7.48363257      -1.13956396
B        2.31673000       1.42955000       3.77944000      -1.85652800      -2.14982900       3.21956500      -1.49178092      -2.07738057       3.28412469
B        3.17088000       0.01260000       8.16689000      -2.14308300      -0.12737100      -3.63430700      -1.66718357      -0.31350867      -3.20825105
B        2.48887000       2.23189000       2.44876000      -1.30373000       3.96631200      -0.94871100      -1.15524315       3.99918918      -0.47876324
B        3.55016000       3.21990000       0.17024000       2.13469500      -3.52588700       0.23974700       1.78017680      -3.37326006       0.79117365
B        3.12966000       3.07291000       4.24572000      -6.99085300       0.34377600      -0.16579100      -6.81413695       0.09709265      -0.03215010
B        2.38358000       5.95301000       6.34325000       2.25901800      -8.76611800      -6.31465800       2.44420986      -9.09116447      -6.49768854
B        4.46260000       2.62992000       4.23823000       7.08507900      -1.75449200       0.40993300       6.18477875      -1.90900391       0.21857388
B        7.51183000       3.59374000       3.85724000       1.49621300      -1.20378300       3.39561400       1.67157549      -0.92398549       3.33381996
Si       0.50050000       1.66927000       5.10425000      -1.02554400      -2.67263500       2.61432900      -0.75030865      -2.69126234       2.38836878
Si       0.41923000       4.50138000       8.15701000       0.82744200      -0.47721100      -2.57541600       1.01822138      -0.28775038      -2.77851144
Si       2.90131000       4.25049000       1.93860000       2.71957100       0.04497600      -0.88170100       2.68937722       0.24796594      -0.72008590
Si       3.74353000       6.85388000       5.19884000      -1.20766000       1.80214700      -2.20114300      -1.29119288       1.63602487      -1.99716017
Si       3.54209000       6.47938000       8.21357000      -0.45014500      -1.75854100       4.24377300      -0.39474131      -1.70606805       4.45726326
Si       4.55252000       1.74669000       6.40118000       0.28733400       0.20348600      -1.69136000      -0.08016017       0.11463063      -1.41328179
Si       5.87020000       3.30923000       5.41310000       1.93974000       0.55942400      -1.14043100       1.99706023       0.92941751      -0.91866743
Si       6.68392000       0.09389000       2.07850000      -2.78148600      -1.30329400       2.70552900      -2.52828583      -0.92749843       2.44439041
Si       7.30980000       7.36953000       0.08595000       4.18267400      -0.22507900      -1.67891000       4.14941596      -0.88274059      -1.85616215
Si       8.41387000       7.50606000       2.97540000       5.08859000       1.78741200      -0.88875800       5.21008833       2.08851526      -0.69069110
54
Lattice="8.579999685 0.0 0.0 0.0 8.579999685 0.0 0.0 0.0 8.5799996" Properties=species:S:1:pos:R:3:REF_forces:R:3:MACE_forces:R:3 config_type=Fe34B10Si10 REF_energy=-359.84864784 MACE_energy=-358.23728246885923 pbc="T T T"
Fe       0.39531000       2.37288000       0.87042000       3.27925500       2.43832800      -1.60261100       2.82584553       2.62390622      -1.67941407
Fe       0.75383000       1.65209000       3.11094000       1.30783500      -0.34615400      -0.09267000       0.61704148      -0.55158352       0.14556489
Fe       1.33201000       3.79282000       7.26231000      -2.40668100      -1.18131200       0.32245500      -2.05601691      -0.84126347       0.93198251
Fe       0.64436000       4.41396000       2.97573000       2.42004200      -2.26182600       0.38963900       2.00303116      -2.11134882       0.54758187
Fe       0.14751000       6.42079000       3.51005000      -3.07002100       1.32407200      -2.30638400      -2.90790429       0.99922656      -2.37115730