10
Lattice="8.0 0.0 0.0 0.0 8.0 0.0 0.0 0.0 8.0" Properties=species:S:1:pos:R:3:momenta:R:3:forces:R:3 config_type=Fe5B5 energy=-70.21925307103443 free_energy=-70.21925307103443 stress="-0.018137596759697453 -0.0025757490974361663 -0.003571163968427521 -0.0025757490974361663 -0.009667483260490502 0.002492938181286942 -0.003571163968427521 0.002492938181286942 0.0002553577473915509" pbc="T T T"
Fe       0.94430000       7.18623000       5.15856000       0.00000000       0.00000000       0.00000000      -1.26084421      -1.07801396       0.28726586
Fe       7.44992000       6.24699000       6.39996000       0.00000000       0.00000000       0.00000000      -0.82127456      -0.22018359       0.80641927
Fe       7.16624000       6.03237000       1.29740000       0.00000000       0.00000000       0.00000000      -1.72217867      -0.49296540      -1.41280432
Fe       5.14967000       7.42987000       7.71171000       0.00000000       0.00000000       0.00000000       1.93843992      -2.05288776       1.92398125
Fe       0.62290000       6.60891000       2.15190000       0.00000000       0.00000000       0.00000000       1.66924044       0.66308078       0.92897169
B        4.15583000       0.34925000       6.70226000       0.00000000       0.00000000       0.00000000      -2.85389059       1.42961856      -2.13424704
B        1.17013000       6.56271000       7.20790000       0.00000000       0.00000000       0.00000000      -2.58014374      -1.10492645      -0.32744673
B        2.46698000       7.16255000       7.18789000       0.00000000       0.00000000       0.00000000       4.22351335       0.10699896      -0.28931635
B        2.34857000       0.07278000       5.52359000       0.00000000       0.00000000       0.00000000       3.40467085       1.34672734       0.23258112
B        1.51530000       0.26575000       6.85681000       0.00000000       0.00000000       0.00000000      -1.99753280       1.40255151      -0.01540476
10
Lattice="8.0 0.0 0.0 0.0 8.0 0.0 0.0 0.0 8.0" Properties=species:S:1:pos:R:3:momenta:R:3:forces:R:3 config_type=Fe5B5 energy=-71.77659369745847 free_energy=-71.77659369745847 stress="-0.0004531584522340579 -0.00579410704096741 -0.005309810304229756 -0.00579410704096741 0.002595591466510363 -0.002922218572853986 -0.005309810304229756 -0.002922218572853986 0.0033252294061983795" pbc="T T T"
Fe       0.93728125       7.17549234       5.17885759       1.01033235       0.25114616       1.13964311       1.03264894       0.51984511       0.72413034
Fe       7.37937615       6.23127930       6.43636382      -3.79637804      -0.80265263       1.29691216      -1.66684979      -0.10814212       0.32239142
Fe       7.06606207       6.00054261       1.21541755      -4.74693145      -1.37281424      -4.00831321      -1.73222976      -0.27600140      -1.72792992
Fe       5.19145245       7.37168242       7.76368896       0.77464551      -1.59719665       1.30992754      -0.36216595      -0.11735350      -0.45887262
Fe       0.72393689       6.63829810       2.19893960       4.67325421       1.43763205       2.19446582       1.57299844       0.61337147       0.95296216
B        3.79497599       0.53831871       6.47443580      -0.58803048       1.26999280      -0.08859499       2.67725210       0.76381009       2.00110595
B        1.00249584       6.51002108       7.18048572       0.48387418       0.34547713       0.07351600       1.44670857       0.67855281       0.14451018
B        3.04387097       7.21913180       7.10041769       2.95030392       0.31275539      -0.56948723      -0.64974681      -0.30472981       0.12775658
B        2.76640511       0.23071729       5.53677276       0.69812249       0.33076514      -0.68506940      -2.78938358      -0.92867231      -1.61241848
B        1.22928473       0.36374814       6.80529677      -1.45919270      -0.17510516      -0.66299981       0.47076786      -0.84068034      -0.47363561
10
Lattice="8.0 0.0 0.0 0.0 8.0 0.0 0.0 0.0 8.0" Properties=species:S:1:pos:R:3:momenta:R:3:forces:R:3 config_type=Fe5B5 energy=-72.13292418312565 free_energy=-72.13292418312565 stress="0.006081224863465358 -0.002087422314611004 0.0005240836049777518 -0.002087422314611004 -0.0004844577289552822 -0.004603528211302908 0.0005240836049777518 -0.004603528211302908 0.0038412533792232806" pbc="T T T"
Fe       1.00744709       7.19036987       5.23453901       1.15384966      -1.06476104       0.48251953      -1.65129303      -2.46358453      -1.61757183
Fe       7.18865002       6.21075455       6.52843050      -3.80175791       0.18512336       2.88032112       0.63402517       0.71356840       0.65093733
Fe       6.82429455       5.94813061       0.98245133      -5.59207787      -0.83792913      -5.91137684       0.33227659       0.41080540      -0.30268598
Fe       5.22460947       7.28832822       7.80306932       1.25688147      -2.02669009       0.58748777       0.87967929       0.12418818      -0.08064916
Fe       0.94619933       6.71500446       2.32371471       4.48252769       1.83401951       2.74844003      -0.48882664      -0.14758790      -0.12032259
B        4.07814754       0.92584873       6.73841877       1.84563621       1.39569199       1.53397288       0.13288664      -0.61609011       0.10248961
B        1.25411062       6.65650749       7.10345223       1.07799323       0.55472336      -0.85592837      -0.27068667      -0.36517635      -0.22070687
B        3.56730087       7.20510320       6.97236585       1.59301008      -0.08009374      -1.00540711      -1.03672088       0.15204672      -0.64624426
B        2.50541662       0.15752699       5.25395619      -1.04426722      -0.20014976      -0.44113652       1.42760388       0.81835229       0.91952778
B        0.98339877       0.25016273       6.62190816      -0.97179534       0.24006553      -0.01889250       0.04105566       1.37347790       1.31522598
10
Lattice="8.0 0.0 0.0 0.0 8.0 0.0 0.0 0.0 8.0" Properties=species:S:1:pos:R:3:momenta:R:3:forces:R:3 config_type=Fe5B5 energy=-70.21925307103443 free_energy=-70.21925307103443 stress="-0.018137596759697453 -0.0025757490974361663 -0.003571163968427521 -0.0025757490974361663 -0.009667483260490502 0.002492938181286942 -0.003571163968427521 0.002492938181286942 0.0002553577473915509" pbc="T T T"
Fe       0.94430000       7.18623000       5.15856000       0.00000000       0.00000000       0.00000000      -1.26084421      -1.07801396       0.28726586
Fe       7.44992000       6.24699000       6.39996000       0.00000000       0.00000000       0.00000000      -0.82127456      -0.22018359       0.80641927
Fe       7.16624000       6.03237000       1.29740000       0.00000000       0.00000000       0.00000000      -1.72217867      -0.49296540      -1.41280432
Fe       5.14967000       7.42987000       7.71171000       0.00000000       0.00000000       0.00000000       1.93843992      -2.05288776       1.92398125
Fe       0.62290000       6.60891000       2.15190000       0.00000000       0.00000000       0.00000000       1.66924044       0.66308078       0.92897169
B        4.15583000       0.34925000       6.70226000       0.00000000       0.00000000       0.00000000      -2.85389059       1.42961856      -2.13424704
B        1.17013000       6.56271000       7.20790000       0.00000000       0.00000000       0.00000000      -2.58014374      -1.10492645      -0.32744673
B        2.46698000       7.16255000       7.18789000       0.00000000       0.00000000       0.00000000       4.22351335       0.10699896      -0.28931635
B        2.34857000       0.07278000       5.52359000       0.00000000       0.00000000       0.00000000       3.40467085       1.34672734       0.23258112
B        1.51530000       0.26575000       6.85681000       0.00000000       0.00000000       0.00000000      -1.99753280       1.40255151      -0.01540476
10
Lattice="8.0 0.0 0.0 0.0 8.0 0.0 0.0 0.0 8.0" Properties=species:S:1:pos:R:3:momenta:R:3:forces:R:3 config_type=Fe5B5 energy=-71.77659369745847 free_energy=-71.77659369745847 stress="-0.0004531584522340579 -0.00579410704096741 -0.005309810304229756 -0.00579410704096741 0.002595591466510363 -0.002922218572853986 -0.005309810304229756 -0.002922218572853986 0.0033252294061983795" pbc="T T T"
Fe       0.93728125       7.17549234       5.17885759       1.01033235       0.25114616       1.13964311       1.03264894       0.51984511       0.72413034
Fe       7.37937615       6.23127930       6.43636382      -3.79637804      -0.80265263       1.29691216      -1.66684979      -0.10814212       0.32239142
Fe       7.06606207       6.00054261       1.21541755      -4.74693145      -1.37281424      -4.00831321      -1.73222976      -0.27600140      -1.72792992
Fe       5.19145245       7.37168242       7.76368896       0.77464551      -1.59719665       1.30992754      -0.36216595      -0.11735350      -0.45887262
Fe       0.72393689       6.63829810       2.19893960       4.67325421       1.43763205       2.19446582       1.57299844       0.61337147       0.95296216
B        3.79497599       0.53831871       6.47443580      -0.58803048       1.26999280      -0.08859499       2.67725210       0.76381009       2.00110595
B        1.00249584       6.51002108       7.18048572       0.48387418       0.34547713       0.07351600       1.44670857       0.67855281       0.14451018
B        3.04387097       7.21913180       7.10041769       2.95030392       0.31275539      -0.56948723      -0.64974681      -0.30472981       0.12775658
B        2.76640511       0.23071729       5.53677276       0.69812249       0.33076514      -0.68506940      -2.78938358      -0.92867231      -1.61241848
B        1.22928473       0.36374814       6.80529677      -1.45919270      -0.17510516      -0.66299981       0.47076786      -0.84068034      -0.47363561
10
Lattice="8.0 0.0 0.0 0.0 8.0 0.0 0.0 0.0 8.0" Properties=species:S:1:pos:R:3:momenta:R:3:forces:R:3 config_type=Fe5B5 energy=-72.13292418312565 free_energy=-72.13292418312565 stress="0.006081224863465358 -0.002087422314611004 0.0005240836049777518 -0.002087422314611004 -0.0004844577289552822 -0.004603528211302908 0.0005240836049777518 -0.004603528211302908 0.0038412533792232806" pbc="T T T"
Fe       1.00744709       7.19036987       5.23453901       1.15384966      -1.06476104       0.48251953      -1.65129303      -2.46358453      -1.61757183
Fe       7.18865002       6.21075455       6.52843050      -3.80175791       0.18512336       2.88032112       0.63402517       0.71356840       0.65093733
Fe       6.82429455       5.94813061       0.98245133      -5.59207787      -0.83792913      -5.91137684       0.33227659       0.41080540      -0.30268598
Fe       5.22460947       7.28832822       7.80306932       1.25688147      -2.02669009       0.58748777       0.87967929       0.12418818      -0.08064916
Fe       0.94619933       6.71500446       2.32371471       4.48252769       1.83401951       2.74844003      -0.48882664      -0.14758790      -0.12032259
B        4.07814754       0.92584873       6.73841877       1.84563621       1.39569199       1.53397288       0.13288664      -0.61609011       0.10248961
B        1.25411062       6.65650749       7.10345223       1.07799323       0.55472336      -0.85592837      -0.27068667      -0.36517635      -0.22070687
B        3.56730087       7.20510320       6.97236585       1.59301008      -0.08009374      -1.00540711      -1.03672088       0.15204672      -0.64624426
B        2.50541662       0.15752699       5.25395619      -1.04426722      -0.20014976      -0.44113652       1.42760388       0.81835229       0.91952778
B        0.98339877       0.25016273       6.62190816      -0.97179534       0.24006553      -0.01889250       0.04105566       1.37347790       1.31522598
10
Lattice="8.0 0.0 0.0 0.0 8.0 0.0 0.0 0.0 8.0" Properties=species:S:1:pos:R:3:momenta:R:3:forces:R:3 config_type=Fe5B5 energy=-73.08435528688854 free_energy=-73.08435528688854 stress="-0.015175644706487398 -0.0025943950698546388 -0.003793846337745291 -0.0025943950698546388 -0.005141953824280912 0.0006802081006467597 -0.003793846337745291 0.0006802081006467597 0.006047228863390774" pbc="T T T"
Fe       0.94430000       7.18623000       5.15856000       0.00000000       0.00000000       0.00000000      -1.01265168      -0.91742381       0.48013751
Fe       7.44992000       6.24699000       6.39996000       0.00000000       0.00000000       0.00000000      -0.81281847      -0.13383360       0.83372975
Fe       7.16624000       6.03237000       1.29740000       0.00000000       0.00000000       0.00000000      -2.09743441      -0.51223957      -1.74728369
Fe       5.14967000       7.42987000       7.71171000       0.00000000       0.00000000       0.00000000       2.10618184      -2.00136348       1.80338902
Fe       0.62290000       6.60891000       2.15190000       0.00000000       0.00000000       0.00000000       1.91765282       0.78797502       1.27604310
B        4.15583000       0.34925000       6.70226000       0.00000000       0.00000000       0.00000000      -3.12878328       1.04749162      -2.07172739
B        1.17013000       6.56271000       7.20790000       0.00000000       0.00000000       0.00000000      -2.61540114      -0.52803359      -0.59440580
B        2.46698000       7.16255000       7.18789000       0.00000000       0.00000000       0.00000000       4.32432441       0.85988441      -0.87007748
B        2.34857000       0.07278000       5.52359000       0.00000000       0.00000000       0.00000000       2.97780178       0.91908130       1.17509307
B        1.51530000       0.26575000       6.85681000       0.00000000       0.00000000       0.00000000      -1.65887188       0.47846171      -0.28489809
10
Lattice="8.0 0.0 0.0 0.0 8.0 0.0 0.0 0.0 8.0" Properties=species:S:1:pos:R:3:momenta:R:3:forces:R:3 config_type=Fe5B5 energy=-74.60881911557355 free_energy=-74.60881911557355 stress="-0.002781598652383626 -0.009326508926466637 -0.004696211148485714 -0.009326508926466637 -0.004961020981353776 -0.0001496747339442251 -0.004696211148485714 -0.0001496747339442251 -0.0011878212242634554" pbc="T T T"
Fe       0.93478997       7.17435443       5.17979752       0.70202862       0.02601278       0.91018020       0.81826543       0.25165001       0.12229461
Fe       7.38930232       6.23642313       6.44110426      -3.00592345      -0.55866156       1.63368391      -1.11180157      -0.03048251       0.50837978
Fe       7.04937165       5.99978657       1.20270694      -5.25791119      -1.36062615      -4.32191909      -1.44860250      -0.16297554      -1.40421067
Fe       5.20321303       7.37220667       7.76089596       1.16159771      -1.54434121       1.15429016      -0.55987852      -0.00116769      -0.64032966
Fe       0.73362771       6.64354285       2.21615008       4.87642569       1.58148704       2.84617279       1.19315370       0.49147111       0.95354164
B        3.75365752       0.46892660       6.49294053       0.77628564       1.56681466       0.54559661       5.77722346       2.59767772       2.46204435
B        1.05218315       6.65953548       7.09959821       0.54080487       1.12136812      -0.63782102       0.96967430      -0.24173772       0.14578005
B        2.95049901       7.33827691       6.99031403       1.73937023       0.32199552      -0.69011852      -1.70513056      -2.38838340       1.71304842
B        2.69586328       0.17300585       5.71305686      -0.94377856      -0.01334138      -0.57569532      -4.81689163      -0.77404712      -3.57182919
B        1.32182530       0.17560013       6.76333621      -0.58889956      -1.14070783      -0.86436973       0.88398789       0.25799515      -0.28871931
10
Lattice="8.0 0.0 0.0 0.0 8.0 0.0 0.0 0.0 8.0" Properties=species:S:1:pos:R:3:momenta:R:3:forces:R:3 config_type=Fe5B5 energy=-75.06923483129168 free_energy=-75.06923483129168 stress="0.011787140816873942 -0.0016091244452403246 0.003350617956477479 -0.0016091244452403246 0.006422771040044852 -0.0029875333272299217 0.003350617956477479 -0.0029875333272299217 0.008864025666066644" pbc="T T T"
Fe       0.95419300       7.15394129       5.17629261      -0.90263591      -1.92577587      -1.02265669      -1.21959991      -1.13277158      -0.25232152
Fe       7.24117975       6.22346684       6.54556152      -2.94756261       0.08835515       2.98864107       0.46929566       0.35485980       0.54391564
Fe       6.80071446       5.95076314       0.97512107      -5.65995817      -0.80470006      -5.54440154       0.24904148       0.37952350      -0.27599594
Fe       5.23067423       7.29814854       7.78280501       0.16057223      -1.71217404      -0.17418184      -0.35494050       0.03214741      -0.53792811
Fe       0.94771116       6.72154819       2.37058392       4.22001633       1.87130561       3.61666482      -0.41137562      -0.08876761       0.11226996
B        4.33627944       0.84809532       6.80423073       2.44040625       0.39394478       1.69380342      -0.20869437      -1.06809168       0.25533264
B        1.30378812       6.56344739       7.01860437       1.40110406      -0.88359618      -0.47924864      -0.01572578       0.83420503      -0.48658389
B        3.11527879       7.33251784       6.90408123       0.32097242       1.01915955      -0.92922213      -0.26248398       1.01631976      -0.46472007
B        2.37531972       0.18552515       5.42484932       0.82701475       0.77031464      -0.73733262       1.61331182       0.49880061       0.60911067
B        1.34412528       0.28994569       6.65116592       0.14007064       1.18316642       0.58793415       0.14117120      -0.82622525       0.49692062
