10
Lattice="8.0 0.0 0.0 0.0 8.0 0.0 0.0 0.0 8.0" Properties=species:S:1:pos:R:3:momenta:R:3:forces:R:3 config_type=Fe5B5 energy=-70.21925307103443 free_energy=-70.21925307103443 stress="-0.018137596759697453 -0.0025757490974361663 -0.003571163968427521 -0.0025757490974361663 -0.009667483260490502 0.002492938181286942 -0.003571163968427521 0.002492938181286942 0.0002553577473915509" pbc="T T T"
Fe       0.94430000       7.18623000       5.15856000       0.00000000       0.00000000       0.00000000      -1.26084421      -1.07801396       0.28726586
Fe       7.44992000       6.24699000       6.39996000       0.00000000       0.00000000       0.00000000      -0.82127456      -0.22018359       0.80641927
Fe       7.16624000       6.03237000       1.29740000       0.00000000       0.00000000       0.00000000      -1.72217867      -0.49296540      -1.41280432
Fe       5.14967000       7.42987000       7.71171000       0.00000000       0.00000000       0.00000000       1.93843992      -2.05288776       1.92398125
Fe       0.62290000       6.60891000       2.15190000       0.00000000       0.00000000       0.00000000       1.66924044       0.66308078       0.92897169
B        4.15583000       0.34925000       6.70226000       0.00000000       0.00000000       0.00000000      -2.85389059       1.42961856      -2.13424704
B        1.17013000       6.56271000       7.20790000       0.00000000       0.00000000       0.00000000      -2.58014374      -1.10492645      -0.32744673
B        2.46698000       7.16255000       7.18789000       0.00000000       0.00000000       0.00000000       4.22351335       0.10699896      -0.28931635
B        2.34857000       0.07278000       5.52359000       0.00000000       0.00000000       0.00000000       3.40467085       1.34672734       0.23258112
B        1.51530000       0.26575000       6.85681000       0.00000000       0.00000000       0.00000000      -1.99753280       1.40255151      -0.01540476
10
Lattice="8.0 0.0 0.0 0.0 8.0 0.0 0.0 0.0 8.0" Properties=species:S:1:pos:R:3:momenta:R:3:forces:R:3 config_type=Fe5B5 energy=-71.77659369745847 free_energy=-71.77659369745847 stress="-0.0004531584522340579 -0.00579410704096741 -0.005309810304229756 -0.00579410704096741 0.002595591466510363 -0.002922218572853986 -0.005309810304229756 -0.002922218572853986 0.0033252294061983795" pbc="T T T"
Fe       0.93728125       7.17549234       5.17885759       1.01033235       0.25114616       1.13964311       1.03264894       0.51984511       0.72413034
Fe       7.37937615       6.23127930       6.43636382      -3.79637804      -0.80265263       1.29691216      -1.66684979      -0.10814212       0.32239142
Fe       7.06606207       6.00054261       1.21541755      -4.74693145      -1.37281424      -4.00831321      -1.73222976      -0.27600140      -1.72792992
Fe       5.19145245       7.37168242       7.76368896       0.77464551      -1.59719665       1.30992754      -0.36216595      -0.11735350      -0.45887262
Fe       0.72393689       6.63829810       2.19893960       4.67325421       1.43763205       2.19446582       1.57299844       0.61337147       0.95296216
B        3.79497599       0.53831871       6.47443580      -0.58803048       1.26999280      -0.08859499       2.67725210       0.76381009       2.00110595
B        1.00249584       6.51002108       7.18048572       0.48387418       0.34547713       0.07351600       1.44670857       0.67855281       0.14451018
B        3.04387097       7.21913180       7.10041769       2.95030392       0.31275539      -0.56948723      -0.64974681      -0.30472981       0.12775658
B        2.76640511       0.23071729       5.53677276       0.69812249       0.33076514      -0.68506940      -2.78938358      -0.92867231      -1.61241848
B        1.22928473       0.36374814       6.80529677      -1.45919270      -0.17510516      -0.66299981       0.47076786      -0.84068034      -0.47363561
10
Lattice="8.0 0.0 0.0 0.0 8.0 0.0 0.0 0.0 8.0" Properties=species:S:1:pos:R:3:momenta:R:3:forces:R:3 config_type=Fe5B5 energy=-72.13292418312565 free_energy=-72.13292418312565 stress="0.006081224863465358 -0.002087422314611004 0.0005240836049777518 -0.002087422314611004 -0.0004844577289552822 -0.004603528211302908 0.0005240836049777518 -0.004603528211302908 0.0038412533792232806" pbc="T T T"
Fe       1.00744709       7.19036987       5.23453901       1.15384966      -1.06476104       0.48251953      -1.65129303      -2.46358453      -1.61757183
Fe       7.18865002       6.21075455       6.52843050      -3.80175791       0.18512336       2.88032112       0.63402517       0.71356840       0.65093733
Fe       6.82429455       5.94813061       0.98245133      -5.59207787      -0.83792913      -5.91137684       0.33227659       0.41080540      -0.30268598
Fe       5.22460947       7.28832822       7.80306932       1.25688147      -2.02669009       0.58748777       0.87967929       0.12418818      -0.08064916
Fe       0.94619933       6.71500446       2.32371471       4.48252769       1.83401951       2.74844003      -0.48882664      -0.14758790      -0.12032259
B        4.07814754       0.92584873       6.73841877       1.84563621       1.39569199       1.53397288       0.13288664      -0.61609011       0.10248961
B        1.25411062       6.65650749       7.10345223       1.07799323       0.55472336      -0.85592837      -0.27068667      -0.36517635      -0.22070687
B        3.56730087       7.20510320       6.97236585       1.59301008      -0.08009374      -1.00540711      -1.03672088       0.15204672      -0.64624426
B        2.50541662       0.15752699       5.25395619      -1.04426722      -0.20014976      -0.44113652       1.42760388       0.81835229       0.91952778
B        0.98339877       0.25016273       6.62190816      -0.97179534       0.24006553      -0.01889250       0.04105566       1.37347790       1.31522598
