54
Lattice="8.579999685 0.0 0.0 0.0 8.579999685 0.0 0.0 0.0 8.5799996" Properties=species:S:1:pos:R:3:REF_forces:R:3:MACE_forces:R:3 config_type=Fe34B10Si10 REF_energy=-352.89092233 MACE_energy=-353.3112978249266 pbc="T T T"
Fe       1.46495000       0.71583000       1.12880000       3.73230100      -3.41607500      -3.76209700       3.31375825      -3.16080949      -2.96617932
Fe       0.56244000       2.07917000       1.96452000      -3.31290700       4.06628900       2.54508600      -3.44315064       3.77676149       2.05180108
Fe       0.86636000       2.12990000       5.00906000     -10.85567700      -2.87102900      12.20968700     -10.17448558      -2.55990311      11.84420300
Fe       0.24697000       2.61233000       7.83061000      -0.37811800      -2.03816900      -0.08744800      -0.43730546      -2.28781644       0.10825398
Fe       0.35437000       4.66395000       8.16447000      -1.30300600       1.62250000       0.84662400      -1.32365394       2.11045033       0.83468584
Fe       0.83543000       8.00840000       3.01492000       5.54921000      -2.55787300       0.52513800       5.51621385      -2.74876079       0.82417476
Fe       2.03952000       7.84431000       6.63062000      -4.28706100       1.82495200      -1.68802900      -4.22553681       2.11066548      -1.72417716
Fe       3.34318000       0.11090000       2.96052000      -0.46571400      -0.35056300       0.37864800      -0.67644310       0.00599016       0.65617780
Fe       3.26317000       2.11539000       1.48699000      -3.47884800      -0.03222100       0.61542300      -3.46756960      -0.07576508      -0.24312665
Fe       4.14313000       2.75755000       3.31065000      -0.71378000      -2.73118300       1.93004800      -0.36323057      -2.28719158       1.83443955
Fe       2.55051000       2.67374000       7.19710000      -2.55215900      -0.93589000       1.77261600      -2.19509475      -0.89677045       1.82050521
Fe       3.61327000       2.86500000       5.46497000       1.55763200       0.20514300      -0.56676300       1.38800605       0.43561851      -0.48829548
Fe       2.62400000       4.72550000       1.39174000      -1.08585200      -1.19598700       0.59645400      -0.96449129      -1.21426209       0.56521432
Fe       2.20317000       5.21693000       3.87451000      -3.92870900      -4.38103900      -4.92199500      -3.82044987      -4.53924314      -5.42425744
Fe       3.93082000       4.37819000       8.08226000       1.07616800       0.44807800      -0.99700400       1.02114287       0.55443675      -0.47171428
Fe       2.44961000       7.01753000       1.08943000       0.32119000      -1.55635000       3.27006500       0.73293711      -1.30893115       2.93096027
Fe       3.02500000       6.15780000       5.08193000      -1.08486800       1.64126100       3.95415400      -0.22748916       1.54771701       4.13913106
Fe       5.77712000       0.44616000       0.16142000      -2.43333700       0.07175000       4.13474700      -1.98014497       0.22504635       4.36134816
Fe       5.66964000       0.14892000       2.95259000      -3.67617900       1.90971100       0.12919700      -3.51183559       1.99526979       0.08959364
Fe       5.39484000       2.66317000       1.55162000       4.08183700      -3.39937100       3.88213200       4.09776806      -3.42495980       4.11683079
Fe       5.91309000       3.40423000       8.31953000       8.90196200       5.48305700      -2.72562400       8.49781767       5.30521310      -3.19036922
Fe       4.96126000       4.63305000       3.41410000      -3.60269200      -2.00302700       2.25051900      -3.55475038      -2.14450172       3.05540215
Fe       5.11347000       6.81217000       1.78872000      -0.87770500       0.06714300      -1.61156800      -0.66677707       0.28387087      -1.78150921
Fe       5.00950000       6.45991000       8.24507000      -2.30619500      -0.19808200      -1.52355700      -2.18242419      -0.48305537      -1.83218053
Fe       4.64263000       7.71190000       5.75084000       2.50156800       4.23919200      -1.55456800       2.89549970       4.44930023      -1.41791518
Fe       7.32285000       0.33022000       5.03535000      -0.99210900      -0.59745100       4.73628300      -0.69442851      -0.51957575       4.28963390
Fe       6.75330000       1.32958000       7.05071000       0.53851300       2.01290400       0.36400700       0.54245509       1.58710400       0.68747539
Fe       6.82686000       2.53028000       3.66692000      -0.08907100      -0.12987400      -0.26318300       0.20390149      -0.20640306      -0.45429159
Fe       6.83617000       5.56618000       0.59386000       1.74434500       1.47371700      -3.32847200       1.13185239       0.98741671      -3.35170306
Fe       8.27091000       4.29855000       2.87718000       3.23308900       0.33980500       1.37352500       3.05174847       0.19345431       1.17884295
Fe       6.58774000       4.90718000       4.97515000      -1.87594500       0.58060600      -0.05143700      -2.34001549       1.23953766      -1.20309954
Fe       6.86773000       6.79187000       3.27473000       1.52763600      -2.76254700       0.67579100       1.34855833      -2.58193801       0.48610095
Fe       8.09083000       8.29691000       0.84396000      -4.18921500      -1.95965200       9.56442300      -3.78622645      -1.52028635       9.60523734
Fe       6.62133000       7.67903000       7.47205000      -3.65417600       1.51975600      -3.32990400      -4.73630282       1.37860315      -4.12551745
B        3.45077000       6.81738000       6.75435000       2.04131500      -2.79808300       3.80923700       2.15591830      -3.01458003       3.96137917
B        4.67436000       1.10514000       4.73414000       0.75036200       0.95391600      -0.52852700       0.36540753       0.41285026      -0.50538473
B        6.18153000       2.20088000       5.47737000      -4.49435700      -3.20609500      -2.27763700      -4.42201637      -2.76441898      -2.47419653
B        5.08133000       4.10197000       6.35983000       0.35152900       0.25548900      -0.65354500       0.36710126       0.24500896      -0.32243183
B        4.48663000       4.29393000       1.40792000      -0.27448100       1.04603100       0.21283300      -0.31159009       1.29518463       0.00467493
B        4.96286000       5.88068000       6.14703000       0.60492000      -1.85032800       0.29314600       0.13468421      -1.66450324       0.35622277
B        8.17242000       5.65216000       5.55863000       1.00443800       0.65677900      -0.69824300       2.10289249       0.14271753      -0.51520486
B        7.98743000       6.92663000       6.60530000       5.86774900       2.58695800      -4.05103700       5.46772735       2.50908515      -3.01826719
B        7.10769000       5.72812000       6.91109000      -2.33709700      -3.34606800       1.34633400      -2.44472157      -3.70778074       1.50322318
B        7.81665000       6.81498000       8.33858000       5.04350100      -2.41043400       0.97359300       5.24544014      -2.65306495       0.50497583
Si       0.06983000       0.14925000       7.74742000       4.12649000       2.60901100      -8.87608100       4.12936387       2.88306021      -8.82372047
Si       1.93337000       2.41223000       3.74634000      10.14534600       2.98113100     -12.18526000       9.59151181       2.75481674     -11.27587232
Si       0.75978000       6.02813000       1.69309000      -4.13401100      -0.74920300       1.02787300      -3.84324579      -1.07750913       0.89984436
Si       2.22023000       5.10313000       7.16329000      -1.58663400       1.19675500      -1.89967800      -1.80509355       1.05125567      -1.72107966
Si       3.27754000       8.17117000       8.35443000       4.04667900       4.58101600      -2.24829100       3.63609026       4.36019453      -1.87387961
Si       4.48145000       2.18337000       8.34202000      -5.72220500      -5.96162700      -4.99603400      -5.89647216      -5.77668565      -5.05653347
Si       6.36439000       4.54151000       2.12641000       2.28764700      -2.33178900       1.39384200       2.15037825      -2.21065248       1.30534441
Si       4.52267000       6.51460000       3.75633000       0.42177200       5.22743800       1.25328700       0.27511855       5.08606368       1.09287503
Si       7.68278000       0.22257000       3.11016000      -0.17295300       4.89916800      -3.86478000      -0.19389252       4.54885736      -3.77736410
Si       7.35363000       3.38410000       6.13231000       4.40786200       1.27045000       2.62604800       4.32554496       1.35381797       2.92971907
54
Lattice="8.579999685 0.0 0.0 0.0 8.579999685 0.0 0.0 0.0 8.5799996" Properties=species:S:1:pos:R:3:REF_forces:R:3:MACE_forces:R:3 config_type=Fe34B10Si10 REF_energy=-354.71875992 MACE_energy=-353.65662910246346 pbc="T T T"
Fe       0.43313000       1.19321000       2.96848000       1.47291300       2.99028000       0.61180900       1.69754099       2.77032030       0.46156647
Fe       0.91365000       1.12516000       8.09995000       2.76260400      -2.00335600       1.20968300       2.66890427      -1.74130648       1.45870114
Fe       1.17142000       2.67870000       5.23446000      -1.90323000       6.04651700       0.58026800      -2.95206639       6.56314323       0.40972250
Fe       0.60772000       3.85484000       0.87278000       2.66909500       4.89444800       4.53699300       2.54249541       5.24317889       4.21902652
Fe       1.41565000       3.44858000       3.01161000      -0.29549500       2.03729500      -0.74017400       0.17004025       2.05767478      -0.72073804
Fe       0.04226000       2.91249000       8.09734000      -3.39897200      -2.84207300      -2.69442200      -3.58856454      -3.11116229      -3.24446644
Fe       1.33282000       7.09057000       5.22634000      -0.45239700      -1.35392500       0.92503500      -0.11421730      -1.20345207       0.56645277
Fe       2.06045000       7.92051000       0.98063000      -3.11321000      -0.30108300      -2.49280600      -3.62272657      -0.38639626      -2.81551557
Fe       2.03627000       8.24295000       3.50701000      -1.42216600       4.38122900       0.88517600      -1.62410017       3.92339629       0.89387212
Fe       0.01253000       8.02686000       7.00667000       2.58679700       0.98610200     -11.80201700       2.03942507       0.49371551     -11.76301600
Fe       3.00353000       0.57289000       6.13981000      -1.03922300       0.18357300       0.93137300      -0.52472824       0.38689142       0.72951683
Fe       3.69949000       2.65196000       7.51811000       2.76433000      -4.34399200      -3.80269000       1.87857286      -3.98310943      -3.60350868
Fe       2.94478000       6.44154000       3.03987000       7.21319500      -3.66655800      -1.17614100       7.35669573      -3.07230100      -0.66083560
Fe       2.94309000       5.75189000       6.64956000      -6.24071800      -0.74678300       3.86021800      -5.98270339      -0.81418422       4.47700917
Fe       3.71160000       8.39321000       1.86324000       2.24845700      -0.43546600       0.28887200       2.90087711      -0.29388778       0.95359570
Fe       4.07810000       8.43915000       4.32840000       2.88035800       1.28304800      -0.49181300       2.57351027       1.41853002      -0.53274104
Fe       5.57499000       0.73262000       6.31633000      -3.12774100      -1.68249800      -0.98058200      -3.01374222      -2.06468876      -1.64280306
Fe       4.70712000       1.94493000       1.65492000      -2.04675700       4.97917500      -3.67899600      -1.13151538       4.58051619      -3.93939310
Fe       4.73401000       4.18392000       1.24748000       0.71501700       1.80608500      -0.06999200       0.63915511       1.77440705       0.02313495
Fe       4.56687000       4.22266000       4.39618000       0.73801700       3.32591500      -2.10569900       0.35043480       4.27497132      -2.42726438
Fe       4.51224000       4.61167000       7.05684000       2.53211900      -0.41024200       0.53825400       2.66020592      -0.32741920       0.38724874
Fe       6.32808000       6.81945000       4.24288000      -3.20445400      -0.33519400      -1.28892300      -2.53936986      -0.43649146      -1.19339100
Fe       6.22240000       7.17309000       0.16230000      -3.30904600      -2.75215800       1.90373500      -2.69457096      -2.94400114       2.11222873
Fe       4.54224000       7.44382000       7.03838000       0.17895600      -5.02037800      -8.74618400      -0.04503253      -4.99062733      -8.08154564
Fe       4.73272000       8.55832000       8.35561000      -0.10588400       8.96287400       6.54083400      -0.96117781       8.60911746       5.47942007
Fe       7.67285000       2.82429000       2.17742000      -2.12886900      -0.76272600      -2.06587500      -2.19240974      -0.82212763      -1.82573825
Fe       6.74071000       1.77406000       4.33655000       0.47479500       0.50025500      -0.42349800       0.18081496       0.59948211      -0.67400305
Fe       7.16362000       1.61896000       6.68131000       5.11373900       1.83737400       0.70818800       4.95232119       1.89453502       1.04624066
Fe       6.73653000       4.13840000       7.84564000       0.19062300       0.32905600       3.59274800       0.27722361       1.03586732       3.64992757
Fe       6.61248000       5.35948000       2.44590000       0.96755600      -0.77403900      -0.47053600       0.60136116      -0.60174812      -0.15623693
Fe       8.39074000       4.95678000       4.82580000       0.50677700       3.21370700       1.22596300       0.73330451       2.76562193       1.11093452
Fe       6.62275000       6.29700000       6.29237000       0.91106900      -0.58785400       1.74696000       0.63560142      -0.57231606       1.65016920
Fe       8.00875000       8.14674000       2.12563000      -1.25903800      -1.94608200      -3.37077000      -1.42431417      -1.60401127      -3.65805357
Fe       7.96861000       8.10559000       4.08816000       1.24434400       0.03207600       4.40361200       0.89728110       0.12709421       4.77429852
B        3.14587000       1.61638000       2.59818000      -3.96044800      -1.57388800      -2.24367700      -4.14052218      -1.18314005      -1.75695923
B        4.07212000       1.93087000       3.78701000       0.55534200       0.12762300      -3.25123200       1.24098117      -0.80157363      -3.59171526
B        2.24412000       1.90783000       4.05913000      -1.80380000      -9.70850100      -5.48536600      -2.36214298     -10.77895676      -5.18294539
B        2.90130000       3.06657000       4.45062000       2.48509300       7.60479000      -1.50334300       3.25842293       7.09577825      -1.87838458
B        2.82587000       3.80138000       5.80651000       0.21675600       2.27927400       3.92227300       0.62118765       2.93901261       3.64977262
B        2.60929000       5.04297000       1.66311000       0.12617300      -0.77075900      -0.46531300      -0.02565466      -0.88787430      -0.61019108
B        2.47198000       4.95014000       4.32601000      -0.76752800      -1.31946700       0.35153300      -0.76892930      -1.41262772       0.58614072
B        2.73354000       7.81887000       7.66829000      -1.47869400      -0.15377200       0.00458000      -0.93906025      -0.13212144       0.18453400
B        5.68071000       2.28134000       7.79544000      -0.95924500       0.41857400       1.11780500      -0.49989853      -0.01493614       0.83145068
B        7.77536000       3.70665000       3.76574000      -0.44877700      -1.48394500      -0.38974400      -0.53098131      -1.41264712      -0.34613444
Si       0.79518000       0.92195000       5.77957000      -1.66645900      -4.94136200      -1.10925300      -1.33066683      -4.73141140      -0.89898094
Si       0.88055000       4.20706000       6.73551000       1.15626000       3.58432200      -0.32349000       0.95183688       3.51776213       0.35049432
Si       1.15025000       6.44729000       2.43826000      -7.77651300      -1.83655100      -1.54918700      -8.00470009      -1.75848974      -1.80144076
Si       2.82820000       3.29548000       0.50208000      -4.05499500       1.58525200       5.32597100      -3.81135746       1.49951260       4.94821608
Si       4.14031000       6.38272000       0.30005000      -2.16949800      -2.44928300       2.57761000      -2.49585984      -2.54741594       2.20394104
Si       3.68345000       6.43010000       5.01209000       3.98893100       0.98565200      -2.13453700       3.75441610       1.20546096      -2.12976767
Si       5.73751000       0.59059000       2.53265000       5.08228400      -4.90021500       2.23852200       4.93222978      -4.41308793       2.84638281
Si       4.51163000       2.47994000       5.36819000       2.60737700      -2.86786400       7.12589500       2.96500138      -2.98696180       7.27369132
Si       6.43436000       3.75222000       5.86206000       1.38008400       0.66155200      -3.64612400       1.02269453       0.46234459      -3.22965409
Si       8.06432000       7.52318000       8.55473000       2.36409700      -3.06603600      11.34847700       2.81847656      -3.20785973      11.08773401
18
Lattice="6.5 0.0 0.0 0.0 6.5 0.0 0.0 0.0 6.5" Properties=species:S:1:pos:R:3:REF_forces:R:3:MACE_forces:R:3 config_type=Fe12B3Si3 REF_energy=-113.87843945 MACE_energy=-121.18464968510355 pbc="T T T"
Fe       5.40234000       5.43492000       1.53729000      -1.39532100       2.04028400       0.71142300      -2.37081067       2.33594021       0.98736968
Fe       2.09750000       2.10361000       0.54730000       2.35673700      -0.33103000       1.27254800       2.73310655      -0.95133048       2.68799142
Fe       2.84360000       1.73250000       3.81271000       2.28004000      -1.18251600      -0.27344700       2.23542998      -1.36518249      -0.40467750
Fe       0.77541000       4.93717000       1.04317000       1.56096300      -3.83372900       1.76362000       2.15077109      -3.73727032       1.51769020
Fe       0.07665000       3.70431000       3.74351000      -0.75952900      -0.39175400      -2.23189700      -1.43492434      -0.53818852      -2.24267482
Fe       4.77171000       3.58949000       4.78220000      -1.99219600      -4.62409700       0.48420500      -1.38364833      -4.09447887       0.48700340
Fe       4.12430000       1.49867000       1.46476000       0.29771700      -2.38794700       0.28396300       0.29320827      -3.28674995       0.70490284
Fe       0.95387000       5.17746000       5.28728000      -0.57085000      -0.50160400      -1.80733600      -0.54227338       0.00006332      -1.22293266
Fe       1.93602000       3.09888000       2.36598000      -0.08855100       0.43128300      -0.27209000       0.00034078       1.03732857      -0.81044987
Fe       5.69037000       1.28357000       4.20026000      -0.40866000      -0.49067900       0.18976600      -0.68980286      -0.49628644       0.29196382
Fe       1.94321000       2.86141000       5.39871000      -0.55906500       0.73218900      -1.80086600      -0.99877733       1.72533458      -2.47023831
Fe       4.33122000       5.38124000       5.25469000      -0.73272900       4.56545400       1.52017900      -0.63895251       4.17732954       1.22221776
B        0.37598000       1.64060000       1.21420000      -3.21263000       2.85095800       0.76078000      -3.04715595       2.53164136       0.03276061
B        1.88110000       4.04794000       3.96741000       2.48956600       2.45119300      -0.32261600       2.60311769       2.52417290      -0.27229015
B        3.63878000       0.94242000       5.41981000      -0.01444500       0.67937600       0.95779200       0.49231664       0.11116023       0.71952224
Si       1.19380000       0.26963000       0.19686000       0.54051800       0.24528300      -1.93219100       0.55804241       0.06343420      -1.82217301
Si       4.57825000       3.47658000       1.16117000       0.15934200       1.26766700      -0.81102600      -0.14849026       1.55371925      -0.85318251
Si       1.09558000       0.76720000       2.75124000       0.04909300      -1.52033200       1.50719200       0.18850224      -1.59063709       1.44719686
54
Lattice="8.579999685 0.0 0.0 0.0 8.579999685 0.0 0.0 0.0 8.5799996" Properties=species:S:1:pos:R:3:REF_forces:R:3:MACE_forces:R:3 config_type=Fe34B10Si10 REF_energy=-356.0869274 MACE_energy=-355.6046473195461 pbc="T T T"
Fe       0.92877000       1.08311000       2.12831000      -0.53214900      -1.15432400       0.53007800      -0.57906262      -0.74442573       0.66386862
Fe       1.12794000       0.45096000       7.37327000      -2.86345100       2.18226700       1.45805300      -2.51601334       2.32838561       1.53972292
Fe       0.91289000       3.61082000       1.96264000      -1.66570100       0.50807500      -4.76654600      -2.28328628       0.21930882      -4.56703109
Fe       0.97242000       3.25012000       3.83975000      -0.85629000      -1.23507100      -0.91491200      -0.39767143      -1.08943320      -0.16369005
Fe       1.43574000       3.84332000       5.84621000      -1.94378300      -0.72872400       4.94145300      -1.87675179      -0.75476399       4.45443969
Fe       0.45897000       5.99881000       1.32384000       1.86679900       1.45939200      -0.33976700       2.13719713       1.77020007      -0.00922011
Fe       0.05714000       6.25044000       6.01250000       0.66851500      -0.88142700       1.67028200       0.93500893      -1.20511884       1.69099744
Fe       1.87526000       7.05991000       7.27744000      -5.90957000       6.81146600       5.95768600      -5.55525044       6.81425895       5.50913622
Fe       4.21220000       0.80536000       3.81626000       0.44958900      -1.97725700       0.54591300       0.28309392      -1.48794412      -0.03314270
Fe       2.64196000       0.75311000       5.88605000       0.80305000      -0.92688600      -1.50973400       0.40490597      -0.54747283      -1.58323511
Fe       2.51735000       4.27963000       7.86001000      -0.17185400       2.88247300       0.00075600      -0.38816622       2.57648289      -0.55863445
Fe       2.46175000       4.76211000       4.38544000       2.27245000       6.36429500      -0.60000700       2.27208158       5.70331272      -1.04703170
Fe       3.99132000       4.46692000       6.09268000      -0.21521200      -1.96607600      -0.25853400      -0.61018238      -2.01158068      -0.45469549
Fe       4.03283000       6.20484000       2.50717000       0.32509400      -1.83048700       1.07686200       0.42578453      -1.78735009       0.87460086
Fe       2.62183000       8.12097000       1.25125000      -5.45108600      -1.04608100      -0.88869000      -4.86645305      -1.16363189      -0.77812361
Fe       2.34208000       7.49949000       3.33705000      -1.45221900       0.10179900       1.96325000      -1.32045010       0.04469716       2.06296858
Fe       4.67554000       0.98699000       8.35162000       1.97529500       0.95938300       0.07305200       2.20816792       1.00983815       0.39907106
Fe       4.68615000       2.28426000       1.60336000       6.03713100       4.39249100       1.56082500       7.09259729       4.61205642       1.14844892
Fe       4.95897000       4.28949000       0.91503000       1.24258400       3.77490300      -1.07876200       1.38185964       3.57765169      -1.34682528
Fe       5.62605000       3.84953000       3.25301000      -4.56775200       3.43217100       2.09526400      -4.68501041       3.61649923       1.40844734
Fe       5.63153000       5.70233000       4.67966000       0.04558900       0.36352900      -0.74034800      -0.31943610      -0.15431166      -0.80980989
Fe       5.00954000       6.14620000       6.89198000       4.51113600      -2.60361300       1.43664400       3.56918635      -2.40430680       1.41795838
Fe       5.34723000       7.32984000       0.56425000       3.41130600      -7.55812200      -7.44238600       3.10610160      -6.75654504      -7.29330735
Fe       4.57141000       8.20633000       1.67615000      -2.51651100       6.57056000       9.11650700      -2.68085197       5.61210247       9.30323204
Fe       5.67084000       7.83697000       6.02451000      -0.02983000       3.57151200       0.33120700      -0.06058064       4.24604370       0.40218689
Fe       7.65837000       1.05332000       0.64336000       1.95813700       2.93603900      -3.62028800       1.63466147       2.60847197      -3.64250836
Fe       7.23579000       1.49494000       3.62009000       0.88838800      -1.50203300       3.00240400       0.61278175      -1.26605190       3.22209934
Fe       6.96409000       1.59543000       6.70415000       0.40175100      -2.57633900      -0.54943900       0.37514506      -2.86639003      -0.43647979
Fe       6.97946000       3.05325000       2.27831000       3.01329100      -2.85779700      -7.80747400       2.65109100      -3.82098748      -6.47251399
Fe       7.05854000       3.62734000       7.13255000       0.94483300       2.42104600       2.56329500       0.91224688       2.67131265       2.11048011
Fe       7.47490000       4.49325000       0.92243000      -3.13561000       0.06366500       0.11142200      -3.19285951       0.97986376      -0.58007947
Fe       7.76499000       5.40883000       4.05655000       3.42051700      -2.49950500       1.10150300       3.49609404      -2.61442800       0.79052200
Fe       6.91686000       6.16423000       2.38917000      -4.34160700       0.52717700      -3.24358900      -4.62239549       0.02631710      -2.87973659
Fe       7.31773000       7.39473000       4.73130000      -1.41907300       3.06948200       1.38572900      -1.20229604       3.27945844       1.20285955
B        1.63947000       5.44017000       2.85377000      -1.37965300       1.67099600      -0.34434500      -1.62795770       1.70144707      -0.45399859
B        3.47444000       1.29905000       1.69513000      -6.04542900      -7.46227000      -1.52467000      -5.84620151      -7.57786255      -1.13710649
B        2.31673000       1.42955000       3.77944000      -1.85652800      -2.14982900       3.21956500      -1.51909442      -2.12088036       3.34897426
B        3.17088000       0.01260000       8.16689000      -2.14308300      -0.12737100      -3.63430700      -1.65108555      -0.30820104      -3.28547368
B        2.48887000       2.23189000       2.44876000      -1.30373000       3.96631200      -0.94871100      -1.14060368       3.98008750      -0.50969184
B        3.55016000       3.21990000       0.17024000       2.13469500      -3.52588700       0.23974700       1.81090339      -3.39436934       0.82775020
B        3.12966000       3.07291000       4.24572000      -6.99085300       0.34377600      -0.16579100      -6.76741952       0.08413223      -0.03866323
B        2.38358000       5.95301000       6.34325000       2.25901800      -8.76611800      -6.31465800       2.45604771      -9.13642197      -6.61097428
B        4.46260000       2.62992000       4.23823000       7.08507900      -1.75449200       0.40993300       6.23754954      -1.87765299       0.21898607
B        7.51183000       3.59374000       3.85724000       1.49621300      -1.20378300       3.39561400       1.71765324      -0.95145121       3.32729317
Si       0.50050000       1.66927000       5.10425000      -1.02554400      -2.67263500       2.61432900      -0.79699596      -2.71028359       2.39057501
Si       0.41923000       4.50138000       8.15701000       0.82744200      -0.47721100      -2.57541600       1.02318856      -0.31320609      -2.79755427
Si       2.90131000       4.25049000       1.93860000       2.71957100       0.04497600      -0.88170100       2.70425864       0.28457673      -0.74591683
Si       3.74353000       6.85388000       5.19884000      -1.20766000       1.80214700      -2.20114300      -1.33090645       1.68309744      -2.05118584
Si       3.54209000       6.47938000       8.21357000      -0.45014500      -1.75854100       4.24377300      -0.36420127      -1.72056150       4.47794522
Si       4.55252000       1.74669000       6.40118000       0.28733400       0.20348600      -1.69136000      -0.09847544       0.09856145      -1.43526329
Si       5.87020000       3.30923000       5.41310000       1.93974000       0.55942400      -1.14043100       1.97667427       0.93051755      -0.95120671
Si       6.68392000       0.09389000       2.07850000      -2.78148600      -1.30329400       2.70552900      -2.52585056      -0.91090038       2.45044157
Si       7.30980000       7.36953000       0.08595000       4.18267400      -0.22507900      -1.67891000       4.12865314      -0.88476434      -1.86726327
Si       8.41387000       7.50606000       2.97540000       5.08859000       1.78741200      -0.88875800       5.27257631       2.12261588      -0.70264214
54
Lattice="8.579999685 0.0 0.0 0.0 8.579999685 0.0 0.0 0.0 8.5799996" Properties=species:S:1:pos:R:3:REF_forces:R:3:MACE_forces:R:3 config_type=Fe34B10Si10 REF_energy=-359.84864784 MACE_energy=-359.32679902855693 pbc="T T T"
Fe       0.39531000       2.37288000       0.87042000       3.27925500       2.43832800      -1.60261100       2.78786090       2.64042336      -1.76659182
Fe       0.75383000       1.65209000       3.11094000       1.30783500      -0.34615400      -0.09267000       0.66169297      -0.54920615       0.16826890
Fe       1.33201000       3.79282000       7.26231000      -2.40668100      -1.18131200       0.32245500      -2.04450332      -0.89272283       0.94291532
Fe       0.64436000       4.41396000       2.97573000       2.42004200      -2.26182600       0.38963900       1.99919959      -2.12777374       0.55507995
Fe       0.14751000       6.42079000       3.51005000      -3.07002100       1.32407200      -2.30638400      -2.93485766       0.95785077      -2.37922491