54
Lattice="8.579999685 0.0 0.0 0.0 8.579999685 0.0 0.0 0.0 8.5799996" Properties=species:S:1:pos:R:3:REF_forces:R:3:MACE_forces:R:3 config_type=Fe34B10Si10 REF_energy=-352.89092233 MACE_energy=-353.227870761678 pbc="T T T"
Fe       1.46495000       0.71583000       1.12880000       3.73230100      -3.41607500      -3.76209700       3.76502522      -3.52181072      -3.72134368
Fe       0.56244000       2.07917000       1.96452000      -3.31290700       4.06628900       2.54508600      -3.38564179       4.13946583       2.43131848
Fe       0.86636000       2.12990000       5.00906000     -10.85567700      -2.87102900      12.20968700     -10.94217671      -2.93937857      12.16703429
Fe       0.24697000       2.61233000       7.83061000      -0.37811800      -2.03816900      -0.08744800      -0.31219837      -2.06543670       0.13616124
Fe       0.35437000       4.66395000       8.16447000      -1.30300600       1.62250000       0.84662400      -1.36541793       1.65257401       0.81092949
Fe       0.83543000       8.00840000       3.01492000       5.54921000      -2.55787300       0.52513800       5.53576448      -2.63888691       0.45068372
Fe       2.03952000       7.84431000       6.63062000      -4.28706100       1.82495200      -1.68802900      -4.03474306       2.02836691      -1.68986623
Fe       3.34318000       0.11090000       2.96052000      -0.46571400      -0.35056300       0.37864800      -0.46974205      -0.18589358       0.49449699
Fe       3.26317000       2.11539000       1.48699000      -3.47884800      -0.03222100       0.61542300      -3.32732704      -0.28553392       0.22413467
Fe       4.14313000       2.75755000       3.31065000      -0.71378000      -2.73118300       1.93004800      -0.67341628      -2.49876750       1.92839584
Fe       2.55051000       2.67374000       7.19710000      -2.55215900      -0.93589000       1.77261600      -2.31909688      -1.04071139       1.71360030
Fe       3.61327000       2.86500000       5.46497000       1.55763200       0.20514300      -0.56676300       1.47154082       0.32412429      -0.26311174
Fe       2.62400000       4.72550000       1.39174000      -1.08585200      -1.19598700       0.59645400      -1.37573649      -0.90764118       0.73004083
Fe       2.20317000       5.21693000       3.87451000      -3.92870900      -4.38103900      -4.92199500      -3.87471165      -4.38324296      -5.02994207
Fe       3.93082000       4.37819000       8.08226000       1.07616800       0.44807800      -0.99700400       1.06205780       0.27026672      -1.09793299
Fe       2.44961000       7.01753000       1.08943000       0.32119000      -1.55635000       3.27006500       0.46770441      -1.64672872       3.32003944
Fe       3.02500000       6.15780000       5.08193000      -1.08486800       1.64126100       3.95415400      -0.46733474       1.58837775       3.92304137
Fe       5.77712000       0.44616000       0.16142000      -2.43333700       0.07175000       4.13474700      -2.41005229       0.43625273       4.19928463
Fe       5.66964000       0.14892000       2.95259000      -3.67617900       1.90971100       0.12919700      -3.70013676       1.66906263       0.28091930
Fe       5.39484000       2.66317000       1.55162000       4.08183700      -3.39937100       3.88213200       3.94382431      -3.77567448       4.09257338
Fe       5.91309000       3.40423000       8.31953000       8.90196200       5.48305700      -2.72562400       8.71072396       5.52820525      -2.78318519
Fe       4.96126000       4.63305000       3.41410000      -3.60269200      -2.00302700       2.25051900      -3.84577819      -2.23893339       2.39007608
Fe       5.11347000       6.81217000       1.78872000      -0.87770500       0.06714300      -1.61156800      -0.65602120       0.11367283      -1.59356089
Fe       5.00950000       6.45991000       8.24507000      -2.30619500      -0.19808200      -1.52355700      -2.23421579      -0.04496756      -1.65162878
Fe       4.64263000       7.71190000       5.75084000       2.50156800       4.23919200      -1.55456800       2.57861409       4.25160278      -1.68563412
Fe       7.32285000       0.33022000       5.03535000      -0.99210900      -0.59745100       4.73628300      -1.04167028      -0.39044441       4.73992979
Fe       6.75330000       1.32958000       7.05071000       0.53851300       2.01290400       0.36400700       0.46381746       1.87872435       0.35594716
Fe       6.82686000       2.53028000       3.66692000      -0.08907100      -0.12987400      -0.26318300       0.04039204      -0.20261462      -0.24955291
Fe       6.83617000       5.56618000       0.59386000       1.74434500       1.47371700      -3.32847200       1.82526280       1.87974156      -3.42667456
Fe       8.27091000       4.29855000       2.87718000       3.23308900       0.33980500       1.37352500       3.13789735       0.19973679       1.39370116
Fe       6.58774000       4.90718000       4.97515000      -1.87594500       0.58060600      -0.05143700      -2.07393016       0.50738620      -0.64897290
Fe       6.86773000       6.79187000       3.27473000       1.52763600      -2.76254700       0.67579100       1.46550909      -2.45496057       0.34791790
Fe       8.09083000       8.29691000       0.84396000      -4.18921500      -1.95965200       9.56442300      -4.32672164      -2.31537983       9.53674544
Fe       6.62133000       7.67903000       7.47205000      -3.65417600       1.51975600      -3.32990400      -3.95392179       1.32627503      -3.46846323
B        3.45077000       6.81738000       6.75435000       2.04131500      -2.79808300       3.80923700       1.87843894      -2.77226233       3.97729498
B        4.67436000       1.10514000       4.73414000       0.75036200       0.95391600      -0.52852700       0.82965364       0.87379993      -0.40620493
B        6.18153000       2.20088000       5.47737000      -4.49435700      -3.20609500      -2.27763700      -4.67685107      -3.14639806      -2.38263165
B        5.08133000       4.10197000       6.35983000       0.35152900       0.25548900      -0.65354500       0.54658808       0.37498548      -0.62749692
B        4.48663000       4.29393000       1.40792000      -0.27448100       1.04603100       0.21283300      -0.19291516       1.19412653       0.24411941
B        4.96286000       5.88068000       6.14703000       0.60492000      -1.85032800       0.29314600       0.52843586      -1.92611469       0.16799307
B        8.17242000       5.65216000       5.55863000       1.00443800       0.65677900      -0.69824300       0.99192517       0.79918884      -0.32285497
B        7.98743000       6.92663000       6.60530000       5.86774900       2.58695800      -4.05103700       5.80008306       2.35190275      -3.76067225
B        7.10769000       5.72812000       6.91109000      -2.33709700      -3.34606800       1.34633400      -2.13188043      -3.40488324       1.70212984
B        7.81665000       6.81498000       8.33858000       5.04350100      -2.41043400       0.97359300       5.13972962      -2.67422519       0.58171269
Si       0.06983000       0.14925000       7.74742000       4.12649000       2.60901100      -8.87608100       4.06655697       2.60518361      -8.72541081
Si       1.93337000       2.41223000       3.74634000      10.14534600       2.98113100     -12.18526000      10.21997796       3.07425297     -12.00098889
Si       0.75978000       6.02813000       1.69309000      -4.13401100      -0.74920300       1.02787300      -4.14097130      -0.82944567       0.97922847
Si       2.22023000       5.10313000       7.16329000      -1.58663400       1.19675500      -1.89967800      -1.64063790       1.14461654      -1.92546322
Si       3.27754000       8.17117000       8.35443000       4.04667900       4.58101600      -2.24829100       3.93442033       4.59686455      -2.41255841
Si       4.48145000       2.18337000       8.34202000      -5.72220500      -5.96162700      -4.99603400      -5.54130868      -5.97126457      -5.11754595
Si       6.36439000       4.54151000       2.12641000       2.28764700      -2.33178900       1.39384200       2.50559462      -2.11288086       1.35433883
Si       4.52267000       6.51460000       3.75633000       0.42177200       5.22743800       1.25328700       0.12012576       5.31384000       1.33775821
Si       7.68278000       0.22257000       3.11016000      -0.17295300       4.89916800      -3.86478000      -0.26749622       4.81312208      -3.95263691
Si       7.35363000       3.38410000       6.13231000       4.40786200       1.27045000       2.62604800       4.35238801       1.43876267       2.93278721
54
Lattice="8.579999685 0.0 0.0 0.0 8.579999685 0.0 0.0 0.0 8.5799996" Properties=species:S:1:pos:R:3:REF_forces:R:3:MACE_forces:R:3 config_type=Fe34B10Si10 REF_energy=-354.71875992 MACE_energy=-355.32557819993326 pbc="T T T"
Fe       0.43313000       1.19321000       2.96848000       1.47291300       2.99028000       0.61180900       1.49314839       2.95804983       0.31846151
Fe       0.91365000       1.12516000       8.09995000       2.76260400      -2.00335600       1.20968300       2.42201181      -2.02472501       1.08180453
Fe       1.17142000       2.67870000       5.23446000      -1.90323000       6.04651700       0.58026800      -1.76417141       6.09828693       0.43948375
Fe       0.60772000       3.85484000       0.87278000       2.66909500       4.89444800       4.53699300       2.52782419       4.95321713       4.16792568
Fe       1.41565000       3.44858000       3.01161000      -0.29549500       2.03729500      -0.74017400      -0.09690347       1.91659733      -0.68985721
Fe       0.04226000       2.91249000       8.09734000      -3.39897200      -2.84207300      -2.69442200      -2.78356707      -2.83655028      -2.31788655
Fe       1.33282000       7.09057000       5.22634000      -0.45239700      -1.35392500       0.92503500      -0.22450953      -1.51689842       0.96819651
Fe       2.06045000       7.92051000       0.98063000      -3.11321000      -0.30108300      -2.49280600      -3.11195739      -0.40586841      -2.37920564
Fe       2.03627000       8.24295000       3.50701000      -1.42216600       4.38122900       0.88517600      -1.46121981       4.13619837       0.66845509
Fe       0.01253000       8.02686000       7.00667000       2.58679700       0.98610200     -11.80201700       2.44350141       0.92807059     -11.88023216
Fe       3.00353000       0.57289000       6.13981000      -1.03922300       0.18357300       0.93137300      -0.82254639       0.11354311       1.01294391
Fe       3.69949000       2.65196000       7.51811000       2.76433000      -4.34399200      -3.80269000       2.59210271      -4.11867772      -3.68692167
Fe       2.94478000       6.44154000       3.03987000       7.21319500      -3.66655800      -1.17614100       7.04506907      -3.47330235      -1.01361791
Fe       2.94309000       5.75189000       6.64956000      -6.24071800      -0.74678300       3.86021800      -6.50192863      -0.64955678       3.84456447
Fe       3.71160000       8.39321000       1.86324000       2.24845700      -0.43546600       0.28887200       2.18507313      -0.17143659       0.67888428
Fe       4.07810000       8.43915000       4.32840000       2.88035800       1.28304800      -0.49181300       2.86576170       1.37468447      -0.77078032
Fe       5.57499000       0.73262000       6.31633000      -3.12774100      -1.68249800      -0.98058200      -2.83957214      -1.66642326      -0.88652905
Fe       4.70712000       1.94493000       1.65492000      -2.04675700       4.97917500      -3.67899600      -2.11773563       4.75912395      -3.50839498
Fe       4.73401000       4.18392000       1.24748000       0.71501700       1.80608500      -0.06999200       0.69834292       2.02184543      -0.10980828
Fe       4.56687000       4.22266000       4.39618000       0.73801700       3.32591500      -2.10569900       0.48113889       3.15407418      -2.19177112
Fe       4.51224000       4.61167000       7.05684000       2.53211900      -0.41024200       0.53825400       2.98644542      -0.75432532       0.49277171
Fe       6.32808000       6.81945000       4.24288000      -3.20445400      -0.33519400      -1.28892300      -2.81496426      -0.25128210      -1.11896563
Fe       6.22240000       7.17309000       0.16230000      -3.30904600      -2.75215800       1.90373500      -3.49020262      -3.06360497       2.09227713
Fe       4.54224000       7.44382000       7.03838000       0.17895600      -5.02037800      -8.74618400       0.28072667      -5.24899252      -8.95303188
Fe       4.73272000       8.55832000       8.35561000      -0.10588400       8.96287400       6.54083400      -0.18015426       9.50120757       6.22497501
Fe       7.67285000       2.82429000       2.17742000      -2.12886900      -0.76272600      -2.06587500      -2.06785514      -0.80925578      -1.98654586
Fe       6.74071000       1.77406000       4.33655000       0.47479500       0.50025500      -0.42349800       0.07998981       0.46583025      -0.48861556
Fe       7.16362000       1.61896000       6.68131000       5.11373900       1.83737400       0.70818800       4.78539945       1.69399583       0.63465246
Fe       6.73653000       4.13840000       7.84564000       0.19062300       0.32905600       3.59274800       0.10063855       0.50499601       3.64140902
Fe       6.61248000       5.35948000       2.44590000       0.96755600      -0.77403900      -0.47053600       0.84505760      -0.68401795      -0.51281893
Fe       8.39074000       4.95678000       4.82580000       0.50677700       3.21370700       1.22596300       0.58657941       3.11018675       1.10272821
Fe       6.62275000       6.29700000       6.29237000       0.91106900      -0.58785400       1.74696000       0.79137391      -0.46653305       1.60922743
Fe       8.00875000       8.14674000       2.12563000      -1.25903800      -1.94608200      -3.37077000      -0.89281385      -1.94373941      -3.40549422
Fe       7.96861000       8.10559000       4.08816000       1.24434400       0.03207600       4.40361200       0.69797150      -0.02162068       4.51226742
B        3.14587000       1.61638000       2.59818000      -3.96044800      -1.57388800      -2.24367700      -3.97424202      -1.48515083      -2.00333739
B        4.07212000       1.93087000       3.78701000       0.55534200       0.12762300      -3.25123200       0.43440962       0.10318852      -3.22850201
B        2.24412000       1.90783000       4.05913000      -1.80380000      -9.70850100      -5.48536600      -1.83805627      -9.90970555      -5.58023488
B        2.90130000       3.06657000       4.45062000       2.48509300       7.60479000      -1.50334300       2.91746910       7.33030639      -1.48834423
B        2.82587000       3.80138000       5.80651000       0.21675600       2.27927400       3.92227300       0.34356257       2.12874851       3.83951636
B        2.60929000       5.04297000       1.66311000       0.12617300      -0.77075900      -0.46531300      -0.07232614      -0.75248575      -0.36427783
B        2.47198000       4.95014000       4.32601000      -0.76752800      -1.31946700       0.35153300      -0.81046780      -1.21907004       0.31018704
B        2.73354000       7.81887000       7.66829000      -1.47869400      -0.15377200       0.00458000      -1.53743652      -0.18016802       0.17698190
B        5.68071000       2.28134000       7.79544000      -0.95924500       0.41857400       1.11780500      -0.92396696       0.34475152       1.06441872
B        7.77536000       3.70665000       3.76574000      -0.44877700      -1.48394500      -0.38974400      -0.55304376      -1.40775908      -0.03230307
Si       0.79518000       0.92195000       5.77957000      -1.66645900      -4.94136200      -1.10925300      -1.62049568      -5.12036763      -0.94616566
Si       0.88055000       4.20706000       6.73551000       1.15626000       3.58432200      -0.32349000       1.09943915       3.78241304      -0.19425707
Si       1.15025000       6.44729000       2.43826000      -7.77651300      -1.83655100      -1.54918700      -7.91528538      -1.74325743      -1.72740983
Si       2.82820000       3.29548000       0.50208000      -4.05499500       1.58525200       5.32597100      -4.13539032       1.48961350       5.27574033
Si       4.14031000       6.38272000       0.30005000      -2.16949800      -2.44928300       2.57761000      -2.20459606      -2.51274470       2.57125820
Si       3.68345000       6.43010000       5.01209000       3.98893100       0.98565200      -2.13453700       3.85604695       1.18669675      -2.07182558
Si       5.73751000       0.59059000       2.53265000       5.08228400      -4.90021500       2.23852200       5.17762447      -4.93121272       2.49595304
Si       4.51163000       2.47994000       5.36819000       2.60737700      -2.86786400       7.12589500       2.76475387      -2.67091352       6.97547394
Si       6.43436000       3.75222000       5.86206000       1.38008400       0.66155200      -3.64612400       1.58875733       0.79959108      -3.77346050
Si       8.06432000       7.52318000       8.55473000       2.36409700      -3.06603600      11.34847700       2.66518892      -2.81557116      11.11003738
18
Lattice="6.5 0.0 0.0 0.0 6.5 0.0 0.0 0.0 6.5" Properties=species:S:1:pos:R:3:REF_forces:R:3:MACE_forces:R:3 config_type=Fe12B3Si3 REF_energy=-113.87843945 MACE_energy=-113.05236719219778 pbc="T T T"
Fe       5.40234000       5.43492000       1.53729000      -1.39532100       2.04028400       0.71142300      -1.15097719       1.97504945       0.69924794
Fe       2.09750000       2.10361000       0.54730000       2.35673700      -0.33103000       1.27254800       2.52645750      -0.09589219       1.09677813
Fe       2.84360000       1.73250000       3.81271000       2.28004000      -1.18251600      -0.27344700       2.19398165      -1.03791329      -0.15455629
Fe       0.77541000       4.93717000       1.04317000       1.56096300      -3.83372900       1.76362000       1.42398356      -3.61178571       1.48934430
Fe       0.07665000       3.70431000       3.74351000      -0.75952900      -0.39175400      -2.23189700      -1.01265497      -0.42048115      -2.29464724
Fe       4.77171000       3.58949000       4.78220000      -1.99219600      -4.62409700       0.48420500      -1.79933556      -4.60804779       0.42391811
Fe       4.12430000       1.49867000       1.46476000       0.29771700      -2.38794700       0.28396300       0.31557581      -2.66193903       0.11982429
Fe       0.95387000       5.17746000       5.28728000      -0.57085000      -0.50160400      -1.80733600      -0.94678989      -0.69952358      -1.30007458
Fe       1.93602000       3.09888000       2.36598000      -0.08855100       0.43128300      -0.27209000      -0.13846426       0.60878616      -0.40585923
Fe       5.69037000       1.28357000       4.20026000      -0.40866000      -0.49067900       0.18976600      -0.67495727      -0.26987058       0.17996598
Fe       1.94321000       2.86141000       5.39871000      -0.55906500       0.73218900      -1.80086600      -0.60929882       0.79928051      -1.84808642
Fe       4.33122000       5.38124000       5.25469000      -0.73272900       4.56545400       1.52017900      -0.70433032       4.41247162       1.53580387
B        0.37598000       1.64060000       1.21420000      -3.21263000       2.85095800       0.76078000      -3.09300877       2.70757063       0.91641091
B        1.88110000       4.04794000       3.96741000       2.48956600       2.45119300      -0.32261600       2.69035124       2.29862633      -0.38206064
B        3.63878000       0.94242000       5.41981000      -0.01444500       0.67937600       0.95779200       0.15722913       0.82180644       1.05934998
Si       1.19380000       0.26963000       0.19686000       0.54051800       0.24528300      -1.93219100       0.68342442       0.02203223      -1.91798952
Si       4.57825000       3.47658000       1.16117000       0.15934200       1.26766700      -0.81102600       0.19819357       1.42864700      -0.71476393
Si       1.09558000       0.76720000       2.75124000       0.04909300      -1.52033200       1.50719200      -0.05937983      -1.66881705       1.49739433
54
Lattice="8.579999685 0.0 0.0 0.0 8.579999685 0.0 0.0 0.0 8.5799996" Properties=species:S:1:pos:R:3:REF_forces:R:3:MACE_forces:R:3 config_type=Fe34B10Si10 REF_energy=-356.0869274 MACE_energy=-356.8202417335616 pbc="T T T"
Fe       0.92877000       1.08311000       2.12831000      -0.53214900      -1.15432400       0.53007800      -0.69256820      -1.24892295       0.39598104
Fe       1.12794000       0.45096000       7.37327000      -2.86345100       2.18226700       1.45805300      -2.86847821       2.02069530       1.46428941
Fe       0.91289000       3.61082000       1.96264000      -1.66570100       0.50807500      -4.76654600      -1.65960025       0.26410904      -4.75811682
Fe       0.97242000       3.25012000       3.83975000      -0.85629000      -1.23507100      -0.91491200      -1.08425755      -1.18616653      -0.40851477
Fe       1.43574000       3.84332000       5.84621000      -1.94378300      -0.72872400       4.94145300      -2.07556479      -0.52322883       4.71114467
Fe       0.45897000       5.99881000       1.32384000       1.86679900       1.45939200      -0.33976700       1.64355196       1.58067458      -0.19447677
Fe       0.05714000       6.25044000       6.01250000       0.66851500      -0.88142700       1.67028200       0.74662561      -0.74561253       1.80347044
Fe       1.87526000       7.05991000       7.27744000      -5.90957000       6.81146600       5.95768600      -5.77079193       7.19778171       5.93636682
Fe       4.21220000       0.80536000       3.81626000       0.44958900      -1.97725700       0.54591300       0.57166763      -1.91152033       0.43616063
Fe       2.64196000       0.75311000       5.88605000       0.80305000      -0.92688600      -1.50973400       0.61808939      -1.09643721      -1.56795189
Fe       2.51735000       4.27963000       7.86001000      -0.17185400       2.88247300       0.00075600       0.00325217       2.97257504       0.37832827
Fe       2.46175000       4.76211000       4.38544000       2.27245000       6.36429500      -0.60000700       2.25262774       6.38681107      -0.55258434
Fe       3.99132000       4.46692000       6.09268000      -0.21521200      -1.96607600      -0.25853400      -0.23379716      -2.14047683      -0.16138799
Fe       4.03283000       6.20484000       2.50717000       0.32509400      -1.83048700       1.07686200       0.44935311      -1.72020822       1.17407348
Fe       2.62183000       8.12097000       1.25125000      -5.45108600      -1.04608100      -0.88869000      -5.57655812      -1.02929242      -0.55746665
Fe       2.34208000       7.49949000       3.33705000      -1.45221900       0.10179900       1.96325000      -1.29147259       0.22856068       1.58518683
Fe       4.67554000       0.98699000       8.35162000       1.97529500       0.95938300       0.07305200       1.78106088       0.79452028       0.42545706
Fe       4.68615000       2.28426000       1.60336000       6.03713100       4.39249100       1.56082500       6.19533536       4.33807353       1.16218542
Fe       4.95897000       4.28949000       0.91503000       1.24258400       3.77490300      -1.07876200       0.64885604       3.43297806      -1.24279664
Fe       5.62605000       3.84953000       3.25301000      -4.56775200       3.43217100       2.09526400      -4.62911831       3.49131568       1.94197226
Fe       5.63153000       5.70233000       4.67966000       0.04558900       0.36352900      -0.74034800       0.09372507      -0.07383589      -0.61179724
Fe       5.00954000       6.14620000       6.89198000       4.51113600      -2.60361300       1.43664400       4.52416714      -2.42896124       1.37249749
Fe       5.34723000       7.32984000       0.56425000       3.41130600      -7.55812200      -7.44238600       3.32070712      -7.04901135      -7.26834473
Fe       4.57141000       8.20633000       1.67615000      -2.51651100       6.57056000       9.11650700      -2.58284989       6.18577682       8.70510870
Fe       5.67084000       7.83697000       6.02451000      -0.02983000       3.57151200       0.33120700      -0.09063518       3.73763733       0.40300042
Fe       7.65837000       1.05332000       0.64336000       1.95813700       2.93603900      -3.62028800       1.88975730       2.97450616      -3.49855643
Fe       7.23579000       1.49494000       3.62009000       0.88838800      -1.50203300       3.00240400       0.98080740      -1.61299393       3.04781644
Fe       6.96409000       1.59543000       6.70415000       0.40175100      -2.57633900      -0.54943900       0.53566813      -2.53411100      -0.51782525
Fe       6.97946000       3.05325000       2.27831000       3.01329100      -2.85779700      -7.80747400       2.49125872      -2.99313605      -7.20937174
Fe       7.05854000       3.62734000       7.13255000       0.94483300       2.42104600       2.56329500       1.05584737       2.45105013       2.49852579
Fe       7.47490000       4.49325000       0.92243000      -3.13561000       0.06366500       0.11142200      -2.92638024       0.41914316      -0.36014503
Fe       7.76499000       5.40883000       4.05655000       3.42051700      -2.49950500       1.10150300       3.49687367      -2.68050917       1.15899768
Fe       6.91686000       6.16423000       2.38917000      -4.34160700       0.52717700      -3.24358900      -4.29716455       0.65257333      -3.17825822
Fe       7.31773000       7.39473000       4.73130000      -1.41907300       3.06948200       1.38572900      -1.39659233       3.08429387       1.30852159
B        1.63947000       5.44017000       2.85377000      -1.37965300       1.67099600      -0.34434500      -1.43489711       1.76717657      -0.59164829
B        3.47444000       1.29905000       1.69513000      -6.04542900      -7.46227000      -1.52467000      -5.90486215      -7.26769225      -1.19103137
B        2.31673000       1.42955000       3.77944000      -1.85652800      -2.14982900       3.21956500      -1.76827934      -1.96811312       3.50160346
B        3.17088000       0.01260000       8.16689000      -2.14308300      -0.12737100      -3.63430700      -2.09776019       0.07695600      -3.58857051
B        2.48887000       2.23189000       2.44876000      -1.30373000       3.96631200      -0.94871100      -0.86695455       3.89984119      -1.24812123
B        3.55016000       3.21990000       0.17024000       2.13469500      -3.52588700       0.23974700       2.11805435      -3.42687603       0.18119627
B        3.12966000       3.07291000       4.24572000      -6.99085300       0.34377600      -0.16579100      -7.16686637       0.03059146      -0.34469985
B        2.38358000       5.95301000       6.34325000       2.25901800      -8.76611800      -6.31465800       2.26010934      -9.20297017      -6.53051903
B        4.46260000       2.62992000       4.23823000       7.08507900      -1.75449200       0.40993300       7.23036645      -1.71191768       0.46888371
B        7.51183000       3.59374000       3.85724000       1.49621300      -1.20378300       3.39561400       1.51120299      -1.11214400       3.32509449
Si       0.50050000       1.66927000       5.10425000      -1.02554400      -2.67263500       2.61432900      -0.86270866      -2.94337667       2.50378626
Si       0.41923000       4.50138000       8.15701000       0.82744200      -0.47721100      -2.57541600       1.06948964      -0.49972273      -2.80770356
Si       2.90131000       4.25049000       1.93860000       2.71957100       0.04497600      -0.88170100       2.94508773      -0.05909379      -1.13359752
Si       3.74353000       6.85388000       5.19884000      -1.20766000       1.80214700      -2.20114300      -1.10082858       1.94206861      -2.19288252
Si       3.54209000       6.47938000       8.21357000      -0.45014500      -1.75854100       4.24377300      -0.57810619      -2.00194803       4.43190921
Si       4.55252000       1.74669000       6.40118000       0.28733400       0.20348600      -1.69136000       0.28224397       0.18237129      -1.72833744
Si       5.87020000       3.30923000       5.41310000       1.93974000       0.55942400      -1.14043100       1.56098628       0.71869394      -1.17350196
Si       6.68392000       0.09389000       2.07850000      -2.78148600      -1.30329400       2.70552900      -2.46263615      -1.20928761       2.84304043
Si       7.30980000       7.36953000       0.08595000       4.18267400      -0.22507900      -1.67891000       4.12604013      -0.48367656      -1.67181172
Si       8.41387000       7.50606000       2.97540000       5.08859000       1.78741200      -0.88875800       5.01691588       2.03046832      -0.87457875
54
Lattice="8.579999685 0.0 0.0 0.0 8.579999685 0.0 0.0 0.0 8.5799996" Properties=species:S:1:pos:R:3:REF_forces:R:3:MACE_forces:R:3 config_type=Fe34B10Si10 REF_energy=-359.84864784 MACE_energy=-360.29645298472866 pbc="T T T"
Fe       0.39531000       2.37288000       0.87042000       3.27925500       2.43832800      -1.60261100       3.22641027       2.58086735      -1.73354261
Fe       0.75383000       1.65209000       3.11094000       1.30783500      -0.34615400      -0.09267000       1.25942284      -0.77987786       0.23486115
Fe       1.33201000       3.79282000       7.26231000      -2.40668100      -1.18131200       0.32245500      -2.54823691      -1.05925373       0.17431700
Fe       0.64436000       4.41396000       2.97573000       2.42004200      -2.26182600       0.38963900       2.47968235      -2.04538804       0.21802898
Fe       0.14751000       6.42079000       3.51005000      -3.07002100       1.32407200      -2.30638400      -3.11674934       1.37914881      -2.54510246