54
Lattice="8.579999685 0.0 0.0 0.0 8.579999685 0.0 0.0 0.0 8.5799996" Properties=species:S:1:pos:R:3:REF_forces:R:3:MACE_forces:R:3 config_type=Fe34B10Si10 REF_energy=-352.89092233 MACE_energy=-353.18472978213464 pbc="T T T"
Fe       1.46495000       0.71583000       1.12880000       3.73230100      -3.41607500      -3.76209700       3.67700222      -3.48660648      -3.54843964
Fe       0.56244000       2.07917000       1.96452000      -3.31290700       4.06628900       2.54508600      -3.24587142       3.96837405       2.32813808
Fe       0.86636000       2.12990000       5.00906000     -10.85567700      -2.87102900      12.20968700     -10.91758281      -2.95875052      12.21336562
Fe       0.24697000       2.61233000       7.83061000      -0.37811800      -2.03816900      -0.08744800      -0.40152749      -1.90365543       0.07420386
Fe       0.35437000       4.66395000       8.16447000      -1.30300600       1.62250000       0.84662400      -1.34290822       1.63149424       0.78927645
Fe       0.83543000       8.00840000       3.01492000       5.54921000      -2.55787300       0.52513800       5.71788093      -2.54625249       0.40228508
Fe       2.03952000       7.84431000       6.63062000      -4.28706100       1.82495200      -1.68802900      -4.09072692       1.97629160      -1.63603619
Fe       3.34318000       0.11090000       2.96052000      -0.46571400      -0.35056300       0.37864800      -0.50592287      -0.23184446       0.47202775
Fe       3.26317000       2.11539000       1.48699000      -3.47884800      -0.03222100       0.61542300      -3.38939965      -0.29612925       0.19520155
Fe       4.14313000       2.75755000       3.31065000      -0.71378000      -2.73118300       1.93004800      -0.62857340      -2.40910713       1.88544634
Fe       2.55051000       2.67374000       7.19710000      -2.55215900      -0.93589000       1.77261600      -2.30949917      -1.12757201       1.70771391
Fe       3.61327000       2.86500000       5.46497000       1.55763200       0.20514300      -0.56676300       1.47624130       0.27897849      -0.30377147
Fe       2.62400000       4.72550000       1.39174000      -1.08585200      -1.19598700       0.59645400      -1.35629833      -0.98977181       0.69345679
Fe       2.20317000       5.21693000       3.87451000      -3.92870900      -4.38103900      -4.92199500      -3.87421622      -4.37504231      -4.98885420
Fe       3.93082000       4.37819000       8.08226000       1.07616800       0.44807800      -0.99700400       1.00847843       0.29605484      -0.94278799
Fe       2.44961000       7.01753000       1.08943000       0.32119000      -1.55635000       3.27006500       0.42709757      -1.61429636       3.27551510
Fe       3.02500000       6.15780000       5.08193000      -1.08486800       1.64126100       3.95415400      -0.60505263       1.65798839       4.07282785
Fe       5.77712000       0.44616000       0.16142000      -2.43333700       0.07175000       4.13474700      -2.46988022       0.42008930       4.21093550
Fe       5.66964000       0.14892000       2.95259000      -3.67617900       1.90971100       0.12919700      -3.68128516       1.62408958       0.31761336
Fe       5.39484000       2.66317000       1.55162000       4.08183700      -3.39937100       3.88213200       4.05688430      -3.65183945       4.04431460
Fe       5.91309000       3.40423000       8.31953000       8.90196200       5.48305700      -2.72562400       8.69027321       5.44148929      -2.67127794
Fe       4.96126000       4.63305000       3.41410000      -3.60269200      -2.00302700       2.25051900      -3.73238496      -2.21928147       2.39906963
Fe       5.11347000       6.81217000       1.78872000      -0.87770500       0.06714300      -1.61156800      -0.69315207       0.06823943      -1.57834937
Fe       5.00950000       6.45991000       8.24507000      -2.30619500      -0.19808200      -1.52355700      -2.28025210       0.01358339      -1.68877241
Fe       4.64263000       7.71190000       5.75084000       2.50156800       4.23919200      -1.55456800       2.59603432       4.30607813      -1.59786722
Fe       7.32285000       0.33022000       5.03535000      -0.99210900      -0.59745100       4.73628300      -1.02414227      -0.36499081       4.80659875
Fe       6.75330000       1.32958000       7.05071000       0.53851300       2.01290400       0.36400700       0.55558236       1.82202974       0.30510431
Fe       6.82686000       2.53028000       3.66692000      -0.08907100      -0.12987400      -0.26318300      -0.04616505      -0.20052168      -0.25871375
Fe       6.83617000       5.56618000       0.59386000       1.74434500       1.47371700      -3.32847200       1.81520276       1.64085610      -3.46002902
Fe       8.27091000       4.29855000       2.87718000       3.23308900       0.33980500       1.37352500       3.20465645       0.19987944       1.31629787
Fe       6.58774000       4.90718000       4.97515000      -1.87594500       0.58060600      -0.05143700      -2.12437392       0.63695288      -0.34994004
Fe       6.86773000       6.79187000       3.27473000       1.52763600      -2.76254700       0.67579100       1.37297699      -2.42376959       0.37579057
Fe       8.09083000       8.29691000       0.84396000      -4.18921500      -1.95965200       9.56442300      -4.15551576      -2.30746875       9.68702481
Fe       6.62133000       7.67903000       7.47205000      -3.65417600       1.51975600      -3.32990400      -3.92075813       1.24494485      -3.50628157
B        3.45077000       6.81738000       6.75435000       2.04131500      -2.79808300       3.80923700       1.93943398      -2.74033415       3.95419271
B        4.67436000       1.10514000       4.73414000       0.75036200       0.95391600      -0.52852700       0.82552499       0.87921959      -0.45780647
B        6.18153000       2.20088000       5.47737000      -4.49435700      -3.20609500      -2.27763700      -4.72323385      -3.15326233      -2.48756271
B        5.08133000       4.10197000       6.35983000       0.35152900       0.25548900      -0.65354500       0.56710288       0.33488322      -0.60992068
B        4.48663000       4.29393000       1.40792000      -0.27448100       1.04603100       0.21283300      -0.26589656       1.22354510       0.16436998
B        4.96286000       5.88068000       6.14703000       0.60492000      -1.85032800       0.29314600       0.60666574      -1.93691202       0.14432391
B        8.17242000       5.65216000       5.55863000       1.00443800       0.65677900      -0.69824300       1.03814165       0.69861154      -0.32830851
B        7.98743000       6.92663000       6.60530000       5.86774900       2.58695800      -4.05103700       5.84855030       2.47981282      -3.72696416
B        7.10769000       5.72812000       6.91109000      -2.33709700      -3.34606800       1.34633400      -2.30379921      -3.51184249       1.34744056
B        7.81665000       6.81498000       8.33858000       5.04350100      -2.41043400       0.97359300       5.14591421      -2.43605423       0.72409596
Si       0.06983000       0.14925000       7.74742000       4.12649000       2.60901100      -8.87608100       3.95952170       2.63970581      -8.86981915
Si       1.93337000       2.41223000       3.74634000      10.14534600       2.98113100     -12.18526000      10.23380078       3.10409896     -12.01515825
Si       0.75978000       6.02813000       1.69309000      -4.13401100      -0.74920300       1.02787300      -4.12592094      -0.87564472       1.01972293
Si       2.22023000       5.10313000       7.16329000      -1.58663400       1.19675500      -1.89967800      -1.78293961       1.14676578      -1.93708691
Si       3.27754000       8.17117000       8.35443000       4.04667900       4.58101600      -2.24829100       3.90148973       4.54152789      -2.45704705
Si       4.48145000       2.18337000       8.34202000      -5.72220500      -5.96162700      -4.99603400      -5.49397169      -5.82024724      -5.17250611
Si       6.36439000       4.54151000       2.12641000       2.28764700      -2.33178900       1.39384200       2.57824948      -2.23363247       1.27307872
Si       4.52267000       6.51460000       3.75633000       0.42177200       5.22743800       1.25328700       0.15240225       5.36047452       1.37913226
Si       7.68278000       0.22257000       3.11016000      -0.17295300       4.89916800      -3.86478000      -0.29410795       4.78251004      -3.97863214
Si       7.35363000       3.38410000       6.13231000       4.40786200       1.27045000       2.62604800       4.39025005       1.39626063       2.99336819
54
Lattice="8.579999685 0.0 0.0 0.0 8.579999685 0.0 0.0 0.0 8.5799996" Properties=species:S:1:pos:R:3:REF_forces:R:3:MACE_forces:R:3 config_type=Fe34B10Si10 REF_energy=-354.71875992 MACE_energy=-355.28554606874917 pbc="T T T"
Fe       0.43313000       1.19321000       2.96848000       1.47291300       2.99028000       0.61180900       1.63896066       2.97619806       0.33088592
Fe       0.91365000       1.12516000       8.09995000       2.76260400      -2.00335600       1.20968300       2.53842838      -2.10379814       1.10870824
Fe       1.17142000       2.67870000       5.23446000      -1.90323000       6.04651700       0.58026800      -1.69321352       6.29926242       0.62865547
Fe       0.60772000       3.85484000       0.87278000       2.66909500       4.89444800       4.53699300       2.66775725       5.13714904       4.24700853
Fe       1.41565000       3.44858000       3.01161000      -0.29549500       2.03729500      -0.74017400      -0.26546915       1.91780588      -0.68133612
Fe       0.04226000       2.91249000       8.09734000      -3.39897200      -2.84207300      -2.69442200      -3.07827871      -2.79686590      -2.48623806
Fe       1.33282000       7.09057000       5.22634000      -0.45239700      -1.35392500       0.92503500      -0.23464402      -1.50823108       0.82953634
Fe       2.06045000       7.92051000       0.98063000      -3.11321000      -0.30108300      -2.49280600      -3.23092614      -0.52089862      -2.32555418
Fe       2.03627000       8.24295000       3.50701000      -1.42216600       4.38122900       0.88517600      -1.53517826       4.18536925       0.56702161
Fe       0.01253000       8.02686000       7.00667000       2.58679700       0.98610200     -11.80201700       2.52446310       0.82883817     -11.93105707
Fe       3.00353000       0.57289000       6.13981000      -1.03922300       0.18357300       0.93137300      -0.69968219      -0.00562854       1.07307747
Fe       3.69949000       2.65196000       7.51811000       2.76433000      -4.34399200      -3.80269000       2.58203306      -4.15248251      -3.66552296
Fe       2.94478000       6.44154000       3.03987000       7.21319500      -3.66655800      -1.17614100       7.13504175      -3.38830512      -0.95397639
Fe       2.94309000       5.75189000       6.64956000      -6.24071800      -0.74678300       3.86021800      -6.53039025      -0.74950166       3.91370774
Fe       3.71160000       8.39321000       1.86324000       2.24845700      -0.43546600       0.28887200       2.37712512      -0.25410753       0.53760457
Fe       4.07810000       8.43915000       4.32840000       2.88035800       1.28304800      -0.49181300       2.90982950       1.47333158      -0.79812507
Fe       5.57499000       0.73262000       6.31633000      -3.12774100      -1.68249800      -0.98058200      -2.91982671      -1.72693606      -1.01748012
Fe       4.70712000       1.94493000       1.65492000      -2.04675700       4.97917500      -3.67899600      -2.12995793       4.85750729      -3.41211394
Fe       4.73401000       4.18392000       1.24748000       0.71501700       1.80608500      -0.06999200       0.69487699       1.97461851      -0.13351683
Fe       4.56687000       4.22266000       4.39618000       0.73801700       3.32591500      -2.10569900       0.56592295       3.45238564      -2.28268611
Fe       4.51224000       4.61167000       7.05684000       2.53211900      -0.41024200       0.53825400       2.95059485      -0.69161430       0.62517271
Fe       6.32808000       6.81945000       4.24288000      -3.20445400      -0.33519400      -1.28892300      -2.84703005      -0.27591262      -1.06952498
Fe       6.22240000       7.17309000       0.16230000      -3.30904600      -2.75215800       1.90373500      -3.54611002      -2.98859212       1.95671128
Fe       4.54224000       7.44382000       7.03838000       0.17895600      -5.02037800      -8.74618400       0.15959143      -5.29031400      -8.83035220
Fe       4.73272000       8.55832000       8.35561000      -0.10588400       8.96287400       6.54083400      -0.26232607       9.39445432       6.31433017
Fe       7.67285000       2.82429000       2.17742000      -2.12886900      -0.76272600      -2.06587500      -2.12001150      -0.72806213      -1.92181867
Fe       6.74071000       1.77406000       4.33655000       0.47479500       0.50025500      -0.42349800       0.11580821       0.51358320      -0.52789450
Fe       7.16362000       1.61896000       6.68131000       5.11373900       1.83737400       0.70818800       4.87878345       1.65545392       0.62569420
Fe       6.73653000       4.13840000       7.84564000       0.19062300       0.32905600       3.59274800       0.35254548       0.46778332       3.67652623
Fe       6.61248000       5.35948000       2.44590000       0.96755600      -0.77403900      -0.47053600       0.88683367      -0.75887566      -0.42240732
Fe       8.39074000       4.95678000       4.82580000       0.50677700       3.21370700       1.22596300       0.57735720       3.15716973       1.09046528
Fe       6.62275000       6.29700000       6.29237000       0.91106900      -0.58785400       1.74696000       0.84816344      -0.47080036       1.52151367
Fe       8.00875000       8.14674000       2.12563000      -1.25903800      -1.94608200      -3.37077000      -0.85691426      -1.94211060      -3.54719532
Fe       7.96861000       8.10559000       4.08816000       1.24434400       0.03207600       4.40361200       0.66968246      -0.02952595       4.62549181
B        3.14587000       1.61638000       2.59818000      -3.96044800      -1.57388800      -2.24367700      -4.11764460      -1.53983486      -2.22198253
B        4.07212000       1.93087000       3.78701000       0.55534200       0.12762300      -3.25123200       0.41615652       0.00514111      -3.33620185
B        2.24412000       1.90783000       4.05913000      -1.80380000      -9.70850100      -5.48536600      -1.87554826      -9.90965618      -5.57979493
B        2.90130000       3.06657000       4.45062000       2.48509300       7.60479000      -1.50334300       2.79740482       7.15160717      -1.41473541
B        2.82587000       3.80138000       5.80651000       0.21675600       2.27927400       3.92227300       0.27383772       2.12560577       3.94598297
B        2.60929000       5.04297000       1.66311000       0.12617300      -0.77075900      -0.46531300      -0.02670938      -0.94534518      -0.48543992
B        2.47198000       4.95014000       4.32601000      -0.76752800      -1.31946700       0.35153300      -0.90041563      -1.18173600       0.37503774
B        2.73354000       7.81887000       7.66829000      -1.47869400      -0.15377200       0.00458000      -1.42630680      -0.13547027       0.09426874
B        5.68071000       2.28134000       7.79544000      -0.95924500       0.41857400       1.11780500      -1.06309426       0.37572502       1.11381419
B        7.77536000       3.70665000       3.76574000      -0.44877700      -1.48394500      -0.38974400      -0.48617481      -1.39782144      -0.18326030
Si       0.79518000       0.92195000       5.77957000      -1.66645900      -4.94136200      -1.10925300      -1.63674020      -5.05930452      -0.92566920
Si       0.88055000       4.20706000       6.73551000       1.15626000       3.58432200      -0.32349000       1.14351369       3.69234313      -0.30638089
Si       1.15025000       6.44729000       2.43826000      -7.77651300      -1.83655100      -1.54918700      -7.83755173      -1.67960060      -1.76150676
Si       2.82820000       3.29548000       0.50208000      -4.05499500       1.58525200       5.32597100      -4.11372895       1.39183687       5.22014455
Si       4.14031000       6.38272000       0.30005000      -2.16949800      -2.44928300       2.57761000      -2.30484705      -2.35613361       2.44327603
Si       3.68345000       6.43010000       5.01209000       3.98893100       0.98565200      -2.13453700       3.92285768       1.19615167      -2.05152225
Si       5.73751000       0.59059000       2.53265000       5.08228400      -4.90021500       2.23852200       5.16844452      -4.97404991       2.51799671
Si       4.51163000       2.47994000       5.36819000       2.60737700      -2.86786400       7.12589500       2.74944850      -2.58007580       7.31329849
Si       6.43436000       3.75222000       5.86206000       1.38008400       0.66155200      -3.64612400       1.48588308       0.66225208      -3.77868973
Si       8.06432000       7.52318000       8.55473000       2.36409700      -3.06603600      11.34847700       2.70737496      -2.74998189      11.35605295
18
Lattice="6.5 0.0 0.0 0.0 6.5 0.0 0.0 0.0 6.5" Properties=species:S:1:pos:R:3:REF_forces:R:3:MACE_forces:R:3 config_type=Fe12B3Si3 REF_energy=-113.87843945 MACE_energy=-112.4188811039941 pbc="T T T"
Fe       5.40234000       5.43492000       1.53729000      -1.39532100       2.04028400       0.71142300      -1.19511772       2.04861406       0.79496220
Fe       2.09750000       2.10361000       0.54730000       2.35673700      -0.33103000       1.27254800       2.68865400      -0.25694109       1.47899133
Fe       2.84360000       1.73250000       3.81271000       2.28004000      -1.18251600      -0.27344700       2.23507056      -1.06610695      -0.34922948
Fe       0.77541000       4.93717000       1.04317000       1.56096300      -3.83372900       1.76362000       1.54225920      -3.66666414       1.57421399
Fe       0.07665000       3.70431000       3.74351000      -0.75952900      -0.39175400      -2.23189700      -0.92949890      -0.48482420      -2.34056879
Fe       4.77171000       3.58949000       4.78220000      -1.99219600      -4.62409700       0.48420500      -1.77178946      -4.55770456       0.42276188
Fe       4.12430000       1.49867000       1.46476000       0.29771700      -2.38794700       0.28396300       0.34527587      -2.70469565       0.16805083
Fe       0.95387000       5.17746000       5.28728000      -0.57085000      -0.50160400      -1.80733600      -0.84094633      -0.68752754      -1.36678008
Fe       1.93602000       3.09888000       2.36598000      -0.08855100       0.43128300      -0.27209000      -0.24021176       0.54950546      -0.38406770
Fe       5.69037000       1.28357000       4.20026000      -0.40866000      -0.49067900       0.18976600      -0.71795939      -0.35036860       0.25642541
Fe       1.94321000       2.86141000       5.39871000      -0.55906500       0.73218900      -1.80086600      -0.65942316       1.06142082      -2.22490264
Fe       4.33122000       5.38124000       5.25469000      -0.73272900       4.56545400       1.52017900      -0.63572488       4.48909767       1.57789439
B        0.37598000       1.64060000       1.21420000      -3.21263000       2.85095800       0.76078000      -3.18195846       2.80225753       1.00461747
B        1.88110000       4.04794000       3.96741000       2.48956600       2.45119300      -0.32261600       2.54687821       2.30479136      -0.31294281
B        3.63878000       0.94242000       5.41981000      -0.01444500       0.67937600       0.95779200       0.04812032       0.78402411       1.07197554
Si       1.19380000       0.26963000       0.19686000       0.54051800       0.24528300      -1.93219100       0.63195007      -0.00042138      -1.90646376
Si       4.57825000       3.47658000       1.16117000       0.15934200       1.26766700      -0.81102600       0.22344073       1.37520293      -0.75459097
Si       1.09558000       0.76720000       2.75124000       0.04909300      -1.52033200       1.50719200      -0.08901889      -1.63965982       1.28965320
54
Lattice="8.579999685 0.0 0.0 0.0 8.579999685 0.0 0.0 0.0 8.5799996" Properties=species:S:1:pos:R:3:REF_forces:R:3:MACE_forces:R:3 config_type=Fe34B10Si10 REF_energy=-356.0869274 MACE_energy=-357.00258039889263 pbc="T T T"
Fe       0.92877000       1.08311000       2.12831000      -0.53214900      -1.15432400       0.53007800      -0.64206367      -1.16121446       0.44221269
Fe       1.12794000       0.45096000       7.37327000      -2.86345100       2.18226700       1.45805300      -2.71893715       2.03065401       1.42206510
Fe       0.91289000       3.61082000       1.96264000      -1.66570100       0.50807500      -4.76654600      -1.59331613       0.16935225      -4.53565319
Fe       0.97242000       3.25012000       3.83975000      -0.85629000      -1.23507100      -0.91491200      -1.11626872      -1.08855956      -0.59785325
Fe       1.43574000       3.84332000       5.84621000      -1.94378300      -0.72872400       4.94145300      -2.04116049      -0.53986181       4.74610912
Fe       0.45897000       5.99881000       1.32384000       1.86679900       1.45939200      -0.33976700       1.68160010       1.46088886      -0.15661741
Fe       0.05714000       6.25044000       6.01250000       0.66851500      -0.88142700       1.67028200       0.61286615      -0.74943070       1.69600729
Fe       1.87526000       7.05991000       7.27744000      -5.90957000       6.81146600       5.95768600      -5.63534579       7.01117620       5.76229354
Fe       4.21220000       0.80536000       3.81626000       0.44958900      -1.97725700       0.54591300       0.52812061      -1.81596364       0.43779440
Fe       2.64196000       0.75311000       5.88605000       0.80305000      -0.92688600      -1.50973400       0.50724454      -1.07085604      -1.48857354
Fe       2.51735000       4.27963000       7.86001000      -0.17185400       2.88247300       0.00075600      -0.17718660       3.04498420       0.03683938
Fe       2.46175000       4.76211000       4.38544000       2.27245000       6.36429500      -0.60000700       2.31689484       6.36592137      -0.50022694
Fe       3.99132000       4.46692000       6.09268000      -0.21521200      -1.96607600      -0.25853400      -0.30341389      -2.18988234      -0.15840378
Fe       4.03283000       6.20484000       2.50717000       0.32509400      -1.83048700       1.07686200       0.39232635      -1.76271550       1.08844768
Fe       2.62183000       8.12097000       1.25125000      -5.45108600      -1.04608100      -0.88869000      -5.56454379      -1.11892209      -0.66305913
Fe       2.34208000       7.49949000       3.33705000      -1.45221900       0.10179900       1.96325000      -1.29586730       0.10645090       1.58622030
Fe       4.67554000       0.98699000       8.35162000       1.97529500       0.95938300       0.07305200       1.71732613       0.86338800       0.33786550
Fe       4.68615000       2.28426000       1.60336000       6.03713100       4.39249100       1.56082500       6.16650785       4.36689400       1.11123831
Fe       4.95897000       4.28949000       0.91503000       1.24258400       3.77490300      -1.07876200       0.79805874       3.54661731      -1.16731052
Fe       5.62605000       3.84953000       3.25301000      -4.56775200       3.43217100       2.09526400      -4.69094872       3.46178950       1.90431846
Fe       5.63153000       5.70233000       4.67966000       0.04558900       0.36352900      -0.74034800       0.11450980      -0.04804871      -0.59974924
Fe       5.00954000       6.14620000       6.89198000       4.51113600      -2.60361300       1.43664400       4.55144956      -2.53845848       1.29128686
Fe       5.34723000       7.32984000       0.56425000       3.41130600      -7.55812200      -7.44238600       3.26566510      -7.11289022      -7.11617540
Fe       4.57141000       8.20633000       1.67615000      -2.51651100       6.57056000       9.11650700      -2.39919944       6.15387366       8.81938351
Fe       5.67084000       7.83697000       6.02451000      -0.02983000       3.57151200       0.33120700      -0.05660806       3.67182620       0.45245725
Fe       7.65837000       1.05332000       0.64336000       1.95813700       2.93603900      -3.62028800       1.83121585       2.82107298      -3.43339381
Fe       7.23579000       1.49494000       3.62009000       0.88838800      -1.50203300       3.00240400       1.06514024      -1.47977590       2.99239996
Fe       6.96409000       1.59543000       6.70415000       0.40175100      -2.57633900      -0.54943900       0.44725082      -2.40945017      -0.47808745
Fe       6.97946000       3.05325000       2.27831000       3.01329100      -2.85779700      -7.80747400       2.62070672      -2.89235696      -7.39620150
Fe       7.05854000       3.62734000       7.13255000       0.94483300       2.42104600       2.56329500       1.00810512       2.30566867       2.37800666
Fe       7.47490000       4.49325000       0.92243000      -3.13561000       0.06366500       0.11142200      -2.82785033       0.39936361      -0.13124643
Fe       7.76499000       5.40883000       4.05655000       3.42051700      -2.49950500       1.10150300       3.58115468      -2.64764309       1.13535447
Fe       6.91686000       6.16423000       2.38917000      -4.34160700       0.52717700      -3.24358900      -4.34841550       0.82886168      -3.23879268
Fe       7.31773000       7.39473000       4.73130000      -1.41907300       3.06948200       1.38572900      -1.44340477       2.97567094       1.33606662
B        1.63947000       5.44017000       2.85377000      -1.37965300       1.67099600      -0.34434500      -1.45573182       1.73928706      -0.54971631
B        3.47444000       1.29905000       1.69513000      -6.04542900      -7.46227000      -1.52467000      -6.09223693      -6.95424070      -1.27565089
B        2.31673000       1.42955000       3.77944000      -1.85652800      -2.14982900       3.21956500      -1.82367437      -1.95327634       3.32906812
B        3.17088000       0.01260000       8.16689000      -2.14308300      -0.12737100      -3.63430700      -2.08800765       0.11728903      -3.47008202
B        2.48887000       2.23189000       2.44876000      -1.30373000       3.96631200      -0.94871100      -0.90073235       3.72560980      -1.23007764
B        3.55016000       3.21990000       0.17024000       2.13469500      -3.52588700       0.23974700       2.14640216      -3.56835635       0.37966313
B        3.12966000       3.07291000       4.24572000      -6.99085300       0.34377600      -0.16579100      -6.88395833       0.09607269      -0.19142832
B        2.38358000       5.95301000       6.34325000       2.25901800      -8.76611800      -6.31465800       2.10685260      -9.04947039      -6.39502112
B        4.46260000       2.62992000       4.23823000       7.08507900      -1.75449200       0.40993300       6.98344328      -1.84558600       0.36361694
B        7.51183000       3.59374000       3.85724000       1.49621300      -1.20378300       3.39561400       1.50755805      -1.01778634       3.23270622
Si       0.50050000       1.66927000       5.10425000      -1.02554400      -2.67263500       2.61432900      -0.78472976      -2.97967732       2.57094844
Si       0.41923000       4.50138000       8.15701000       0.82744200      -0.47721100      -2.57541600       1.11067365      -0.44129820      -2.75879160
Si       2.90131000       4.25049000       1.93860000       2.71957100       0.04497600      -0.88170100       2.71267469      -0.00830566      -1.02569041
Si       3.74353000       6.85388000       5.19884000      -1.20766000       1.80214700      -2.20114300      -1.07075388       1.92107897      -2.09177430
Si       3.54209000       6.47938000       8.21357000      -0.45014500      -1.75854100       4.24377300      -0.59616987      -2.02500935       4.42390720
Si       4.55252000       1.74669000       6.40118000       0.28733400       0.20348600      -1.69136000       0.26997204       0.21204987      -1.63397452
Si       5.87020000       3.30923000       5.41310000       1.93974000       0.55942400      -1.14043100       1.67891478       0.83658807      -1.20737948
Si       6.68392000       0.09389000       2.07850000      -2.78148600      -1.30329400       2.70552900      -2.58602692      -1.25369667       2.84854524
Si       7.30980000       7.36953000       0.08595000       4.18267400      -0.22507900      -1.67891000       4.38652038      -0.39418240      -1.75054700
Si       8.41387000       7.50606000       2.97540000       5.08859000       1.78741200      -0.88875800       5.02739739       1.88448557      -0.88334447
54
Lattice="8.579999685 0.0 0.0 0.0 8.579999685 0.0 0.0 0.0 8.5799996" Properties=species:S:1:pos:R:3:REF_forces:R:3:MACE_forces:R:3 config_type=Fe34B10Si10 REF_energy=-359.84864784 MACE_energy=-360.35771656956734 pbc="T T T"
Fe       0.39531000       2.37288000       0.87042000       3.27925500       2.43832800      -1.60261100       3.18225984       2.64217135      -1.71912353
Fe       0.75383000       1.65209000       3.11094000       1.30783500      -0.34615400      -0.09267000       1.35098742      -0.74461930       0.04050703
Fe       1.33201000       3.79282000       7.26231000      -2.40668100      -1.18131200       0.32245500      -2.49613264      -1.15486096       0.20399357
Fe       0.64436000       4.41396000       2.97573000       2.42004200      -2.26182600       0.38963900       2.44643384      -2.06077189       0.22723599
Fe       0.14751000       6.42079000       3.51005000      -3.07002100       1.32407200      -2.30638400      -3.15313636       1.32227943      -2.47533069