54
Lattice="8.579999685 0.0 0.0 0.0 8.579999685 0.0 0.0 0.0 8.5799996" Properties=species:S:1:pos:R:3:REF_forces:R:3:MACE_forces:R:3 config_type=Fe34B10Si10 REF_energy=-352.89092233 MACE_energy=-353.3195106670827 pbc="T T T"
Fe       1.46495000       0.71583000       1.12880000       3.73230100      -3.41607500      -3.76209700       3.68877663      -3.51319064      -3.54601387
Fe       0.56244000       2.07917000       1.96452000      -3.31290700       4.06628900       2.54508600      -3.22431790       3.96687209       2.34480802
Fe       0.86636000       2.12990000       5.00906000     -10.85567700      -2.87102900      12.20968700     -10.94211255      -2.95603681      12.21853210
Fe       0.24697000       2.61233000       7.83061000      -0.37811800      -2.03816900      -0.08744800      -0.42067210      -1.90526413       0.08475906
Fe       0.35437000       4.66395000       8.16447000      -1.30300600       1.62250000       0.84662400      -1.32886552       1.61091704       0.77346577
Fe       0.83543000       8.00840000       3.01492000       5.54921000      -2.55787300       0.52513800       5.70659744      -2.53151158       0.38635959
Fe       2.03952000       7.84431000       6.63062000      -4.28706100       1.82495200      -1.68802900      -4.07307410       1.96472427      -1.63975865
Fe       3.34318000       0.11090000       2.96052000      -0.46571400      -0.35056300       0.37864800      -0.52145089      -0.22146164       0.47479620
Fe       3.26317000       2.11539000       1.48699000      -3.47884800      -0.03222100       0.61542300      -3.42073189      -0.30462881       0.16539939
Fe       4.14313000       2.75755000       3.31065000      -0.71378000      -2.73118300       1.93004800      -0.61614957      -2.40664131       1.85822470
Fe       2.55051000       2.67374000       7.19710000      -2.55215900      -0.93589000       1.77261600      -2.30173763      -1.14397917       1.71797406
Fe       3.61327000       2.86500000       5.46497000       1.55763200       0.20514300      -0.56676300       1.46567246       0.27582869      -0.28150608
Fe       2.62400000       4.72550000       1.39174000      -1.08585200      -1.19598700       0.59645400      -1.35136608      -1.00991226       0.69752737
Fe       2.20317000       5.21693000       3.87451000      -3.92870900      -4.38103900      -4.92199500      -3.85769483      -4.39281026      -4.97545815
Fe       3.93082000       4.37819000       8.08226000       1.07616800       0.44807800      -0.99700400       1.03077715       0.30259144      -0.91971076
Fe       2.44961000       7.01753000       1.08943000       0.32119000      -1.55635000       3.27006500       0.44427368      -1.63494873       3.26179452
Fe       3.02500000       6.15780000       5.08193000      -1.08486800       1.64126100       3.95415400      -0.63952290       1.64241742       4.04386881
Fe       5.77712000       0.44616000       0.16142000      -2.43333700       0.07175000       4.13474700      -2.47390727       0.40846418       4.22108987
Fe       5.66964000       0.14892000       2.95259000      -3.67617900       1.90971100       0.12919700      -3.64860640       1.65342261       0.31825458
Fe       5.39484000       2.66317000       1.55162000       4.08183700      -3.39937100       3.88213200       4.02890127      -3.64526524       4.03332352
Fe       5.91309000       3.40423000       8.31953000       8.90196200       5.48305700      -2.72562400       8.72415225       5.46455937      -2.71856725
Fe       4.96126000       4.63305000       3.41410000      -3.60269200      -2.00302700       2.25051900      -3.72838741      -2.22175008       2.37791558
Fe       5.11347000       6.81217000       1.78872000      -0.87770500       0.06714300      -1.61156800      -0.70362734       0.07237604      -1.56953480
Fe       5.00950000       6.45991000       8.24507000      -2.30619500      -0.19808200      -1.52355700      -2.27966821       0.01668461      -1.66791789
Fe       4.64263000       7.71190000       5.75084000       2.50156800       4.23919200      -1.55456800       2.61245830       4.26275920      -1.58941499
Fe       7.32285000       0.33022000       5.03535000      -0.99210900      -0.59745100       4.73628300      -1.02527637      -0.38444821       4.81250519
Fe       6.75330000       1.32958000       7.05071000       0.53851300       2.01290400       0.36400700       0.56386776       1.82555479       0.28249105
Fe       6.82686000       2.53028000       3.66692000      -0.08907100      -0.12987400      -0.26318300      -0.06406106      -0.21395799      -0.24794072
Fe       6.83617000       5.56618000       0.59386000       1.74434500       1.47371700      -3.32847200       1.80927968       1.62733988      -3.40513598
Fe       8.27091000       4.29855000       2.87718000       3.23308900       0.33980500       1.37352500       3.21006675       0.22894174       1.33068980
Fe       6.58774000       4.90718000       4.97515000      -1.87594500       0.58060600      -0.05143700      -2.13189544       0.60997362      -0.28541853
Fe       6.86773000       6.79187000       3.27473000       1.52763600      -2.76254700       0.67579100       1.39856437      -2.41321279       0.40039928
Fe       8.09083000       8.29691000       0.84396000      -4.18921500      -1.95965200       9.56442300      -4.20536795      -2.33348490       9.67552295
Fe       6.62133000       7.67903000       7.47205000      -3.65417600       1.51975600      -3.32990400      -3.88740619       1.22776979      -3.51968949
B        3.45077000       6.81738000       6.75435000       2.04131500      -2.79808300       3.80923700       1.90693915      -2.69900659       3.93622079
B        4.67436000       1.10514000       4.73414000       0.75036200       0.95391600      -0.52852700       0.82493902       0.87211473      -0.46559198
B        6.18153000       2.20088000       5.47737000      -4.49435700      -3.20609500      -2.27763700      -4.71112166      -3.15127727      -2.47094695
B        5.08133000       4.10197000       6.35983000       0.35152900       0.25548900      -0.65354500       0.58083193       0.33678853      -0.64194277
B        4.48663000       4.29393000       1.40792000      -0.27448100       1.04603100       0.21283300      -0.26750308       1.21688982       0.15804988
B        4.96286000       5.88068000       6.14703000       0.60492000      -1.85032800       0.29314600       0.63884949      -1.92311239       0.12367155
B        8.17242000       5.65216000       5.55863000       1.00443800       0.65677900      -0.69824300       1.02743943       0.74502072      -0.34054266
B        7.98743000       6.92663000       6.60530000       5.86774900       2.58695800      -4.05103700       5.84549884       2.51174894      -3.74174058
B        7.10769000       5.72812000       6.91109000      -2.33709700      -3.34606800       1.34633400      -2.33795056      -3.51466808       1.29111882
B        7.81665000       6.81498000       8.33858000       5.04350100      -2.41043400       0.97359300       5.17389458      -2.41169160       0.75894075
Si       0.06983000       0.14925000       7.74742000       4.12649000       2.60901100      -8.87608100       3.95667309       2.63988686      -8.86993657
Si       1.93337000       2.41223000       3.74634000      10.14534600       2.98113100     -12.18526000      10.23327522       3.11193198     -12.01165365
Si       0.75978000       6.02813000       1.69309000      -4.13401100      -0.74920300       1.02787300      -4.12858220      -0.86497594       1.03446364
Si       2.22023000       5.10313000       7.16329000      -1.58663400       1.19675500      -1.89967800      -1.78197723       1.17128597      -1.93489250
Si       3.27754000       8.17117000       8.35443000       4.04667900       4.58101600      -2.24829100       3.90862707       4.54184593      -2.47026846
Si       4.48145000       2.18337000       8.34202000      -5.72220500      -5.96162700      -4.99603400      -5.48839220      -5.82475641      -5.13945702
Si       6.36439000       4.54151000       2.12641000       2.28764700      -2.33178900       1.39384200       2.60020705      -2.24087212       1.26386772
Si       4.52267000       6.51460000       3.75633000       0.42177200       5.22743800       1.25328700       0.14682753       5.38562039       1.40269350
Si       7.68278000       0.22257000       3.11016000      -0.17295300       4.89916800      -3.86478000      -0.30836151       4.77095079      -3.98735181
Si       7.35363000       3.38410000       6.13231000       4.40786200       1.27045000       2.62604800       4.34239793       1.39758351       2.99166408
54
Lattice="8.579999685 0.0 0.0 0.0 8.579999685 0.0 0.0 0.0 8.5799996" Properties=species:S:1:pos:R:3:REF_forces:R:3:MACE_forces:R:3 config_type=Fe34B10Si10 REF_energy=-354.71875992 MACE_energy=-355.3703885250585 pbc="T T T"
Fe       0.43313000       1.19321000       2.96848000       1.47291300       2.99028000       0.61180900       1.61872714       2.98604464       0.31614012
Fe       0.91365000       1.12516000       8.09995000       2.76260400      -2.00335600       1.20968300       2.57842433      -2.15517037       1.11761338
Fe       1.17142000       2.67870000       5.23446000      -1.90323000       6.04651700       0.58026800      -1.68675355       6.29796801       0.61064040
Fe       0.60772000       3.85484000       0.87278000       2.66909500       4.89444800       4.53699300       2.66082269       5.10763370       4.26714614
Fe       1.41565000       3.44858000       3.01161000      -0.29549500       2.03729500      -0.74017400      -0.28367440       1.93603408      -0.67143504
Fe       0.04226000       2.91249000       8.09734000      -3.39897200      -2.84207300      -2.69442200      -3.10369337      -2.75353650      -2.50477054
Fe       1.33282000       7.09057000       5.22634000      -0.45239700      -1.35392500       0.92503500      -0.21399347      -1.49802859       0.81291662
Fe       2.06045000       7.92051000       0.98063000      -3.11321000      -0.30108300      -2.49280600      -3.23877557      -0.54010577      -2.33190294
Fe       2.03627000       8.24295000       3.50701000      -1.42216600       4.38122900       0.88517600      -1.53411906       4.19736301       0.55616344
Fe       0.01253000       8.02686000       7.00667000       2.58679700       0.98610200     -11.80201700       2.51010258       0.82625428     -11.92054291
Fe       3.00353000       0.57289000       6.13981000      -1.03922300       0.18357300       0.93137300      -0.71392300      -0.02259517       1.08423305
Fe       3.69949000       2.65196000       7.51811000       2.76433000      -4.34399200      -3.80269000       2.56895414      -4.14570162      -3.68136905
Fe       2.94478000       6.44154000       3.03987000       7.21319500      -3.66655800      -1.17614100       7.12397702      -3.37356629      -0.92275249
Fe       2.94309000       5.75189000       6.64956000      -6.24071800      -0.74678300       3.86021800      -6.60053758      -0.75954251       3.88350717
Fe       3.71160000       8.39321000       1.86324000       2.24845700      -0.43546600       0.28887200       2.36180741      -0.25363351       0.52986134
Fe       4.07810000       8.43915000       4.32840000       2.88035800       1.28304800      -0.49181300       2.94399342       1.48695852      -0.80649650
Fe       5.57499000       0.73262000       6.31633000      -3.12774100      -1.68249800      -0.98058200      -2.98224197      -1.73353215      -1.03589987
Fe       4.70712000       1.94493000       1.65492000      -2.04675700       4.97917500      -3.67899600      -2.14401040       4.82861775      -3.40173728
Fe       4.73401000       4.18392000       1.24748000       0.71501700       1.80608500      -0.06999200       0.71440228       2.00075544      -0.15182447
Fe       4.56687000       4.22266000       4.39618000       0.73801700       3.32591500      -2.10569900       0.61026674       3.50048476      -2.31027531
Fe       4.51224000       4.61167000       7.05684000       2.53211900      -0.41024200       0.53825400       2.99405110      -0.69498101       0.64819974
Fe       6.32808000       6.81945000       4.24288000      -3.20445400      -0.33519400      -1.28892300      -2.85749092      -0.30544375      -1.08760239
Fe       6.22240000       7.17309000       0.16230000      -3.30904600      -2.75215800       1.90373500      -3.54782465      -2.98127625       1.92641447
Fe       4.54224000       7.44382000       7.03838000       0.17895600      -5.02037800      -8.74618400       0.15713020      -5.32032338      -8.86444431
Fe       4.73272000       8.55832000       8.35561000      -0.10588400       8.96287400       6.54083400      -0.24739069       9.47288514       6.41933650
Fe       7.67285000       2.82429000       2.17742000      -2.12886900      -0.76272600      -2.06587500      -2.11732271      -0.69845886      -1.92115859
Fe       6.74071000       1.77406000       4.33655000       0.47479500       0.50025500      -0.42349800       0.13710350       0.53017736      -0.56130794
Fe       7.16362000       1.61896000       6.68131000       5.11373900       1.83737400       0.70818800       4.95848491       1.65631335       0.64310991
Fe       6.73653000       4.13840000       7.84564000       0.19062300       0.32905600       3.59274800       0.35230670       0.46348500       3.69049737
Fe       6.61248000       5.35948000       2.44590000       0.96755600      -0.77403900      -0.47053600       0.91133280      -0.76577567      -0.38451856
Fe       8.39074000       4.95678000       4.82580000       0.50677700       3.21370700       1.22596300       0.54824013       3.13927529       1.08619501
Fe       6.62275000       6.29700000       6.29237000       0.91106900      -0.58785400       1.74696000       0.85282267      -0.46484675       1.52565166
Fe       8.00875000       8.14674000       2.12563000      -1.25903800      -1.94608200      -3.37077000      -0.86871040      -1.96591655      -3.54088380
Fe       7.96861000       8.10559000       4.08816000       1.24434400       0.03207600       4.40361200       0.68396823      -0.04297629       4.63891603
B        3.14587000       1.61638000       2.59818000      -3.96044800      -1.57388800      -2.24367700      -4.10199261      -1.55235859      -2.21191671
B        4.07212000       1.93087000       3.78701000       0.55534200       0.12762300      -3.25123200       0.40094567      -0.04047349      -3.38309568
B        2.24412000       1.90783000       4.05913000      -1.80380000      -9.70850100      -5.48536600      -1.83901392      -9.88664748      -5.58559011
B        2.90130000       3.06657000       4.45062000       2.48509300       7.60479000      -1.50334300       2.78117097       7.07687706      -1.36217466
B        2.82587000       3.80138000       5.80651000       0.21675600       2.27927400       3.92227300       0.27487303       2.13843300       3.96606517
B        2.60929000       5.04297000       1.66311000       0.12617300      -0.77075900      -0.46531300      -0.03835708      -0.94571483      -0.47064385
B        2.47198000       4.95014000       4.32601000      -0.76752800      -1.31946700       0.35153300      -0.91676322      -1.12680883       0.33802832
B        2.73354000       7.81887000       7.66829000      -1.47869400      -0.15377200       0.00458000      -1.41680727      -0.13059216       0.10167786
B        5.68071000       2.28134000       7.79544000      -0.95924500       0.41857400       1.11780500      -1.05223342       0.37168332       1.11644872
B        7.77536000       3.70665000       3.76574000      -0.44877700      -1.48394500      -0.38974400      -0.49455557      -1.37976379      -0.18694041
Si       0.79518000       0.92195000       5.77957000      -1.66645900      -4.94136200      -1.10925300      -1.65147906      -5.08870067      -0.91838276
Si       0.88055000       4.20706000       6.73551000       1.15626000       3.58432200      -0.32349000       1.13708697       3.70395493      -0.28593785
Si       1.15025000       6.44729000       2.43826000      -7.77651300      -1.83655100      -1.54918700      -7.83613914      -1.65610054      -1.75331040
Si       2.82820000       3.29548000       0.50208000      -4.05499500       1.58525200       5.32597100      -4.13787113       1.39229525       5.16200669
Si       4.14031000       6.38272000       0.30005000      -2.16949800      -2.44928300       2.57761000      -2.30813283      -2.37825390       2.44366191
Si       3.68345000       6.43010000       5.01209000       3.98893100       0.98565200      -2.13453700       3.92134777       1.19939347      -2.03616587
Si       5.73751000       0.59059000       2.53265000       5.08228400      -4.90021500       2.23852200       5.20233950      -5.00359513       2.53828987
Si       4.51163000       2.47994000       5.36819000       2.60737700      -2.86786400       7.12589500       2.72273539      -2.59414249       7.30205698
Si       6.43436000       3.75222000       5.86206000       1.38008400       0.66155200      -3.64612400       1.49740104       0.68509410      -3.78652712
Si       8.06432000       7.52318000       8.55473000       2.36409700      -3.06603600      11.34847700       2.70898864      -2.73941857      11.35482956
18
Lattice="6.5 0.0 0.0 0.0 6.5 0.0 0.0 0.0 6.5" Properties=species:S:1:pos:R:3:REF_forces:R:3:MACE_forces:R:3 config_type=Fe12B3Si3 REF_energy=-113.87843945 MACE_energy=-112.46750038662645 pbc="T T T"
Fe       5.40234000       5.43492000       1.53729000      -1.39532100       2.04028400       0.71142300      -1.16053495       2.05573711       0.78590676
Fe       2.09750000       2.10361000       0.54730000       2.35673700      -0.33103000       1.27254800       2.73072306      -0.25826341       1.36295627
Fe       2.84360000       1.73250000       3.81271000       2.28004000      -1.18251600      -0.27344700       2.26049550      -1.08067026      -0.32425506
Fe       0.77541000       4.93717000       1.04317000       1.56096300      -3.83372900       1.76362000       1.54859032      -3.66571764       1.57762001
Fe       0.07665000       3.70431000       3.74351000      -0.75952900      -0.39175400      -2.23189700      -0.85332859      -0.46821354      -2.36115862
Fe       4.77171000       3.58949000       4.78220000      -1.99219600      -4.62409700       0.48420500      -1.81434891      -4.54558773       0.44907443
Fe       4.12430000       1.49867000       1.46476000       0.29771700      -2.38794700       0.28396300       0.35873342      -2.68682379       0.15134219
Fe       0.95387000       5.17746000       5.28728000      -0.57085000      -0.50160400      -1.80733600      -0.82222721      -0.68510311      -1.38585585
Fe       1.93602000       3.09888000       2.36598000      -0.08855100       0.43128300      -0.27209000      -0.23559238       0.58554099      -0.36619639
Fe       5.69037000       1.28357000       4.20026000      -0.40866000      -0.49067900       0.18976600      -0.68259122      -0.36957293       0.24323919
Fe       1.94321000       2.86141000       5.39871000      -0.55906500       0.73218900      -1.80086600      -0.69750067       1.15464884      -2.20768122
Fe       4.33122000       5.38124000       5.25469000      -0.73272900       4.56545400       1.52017900      -0.62580341       4.49478799       1.60109123
B        0.37598000       1.64060000       1.21420000      -3.21263000       2.85095800       0.76078000      -3.20771550       2.75069584       1.03264095
B        1.88110000       4.04794000       3.96741000       2.48956600       2.45119300      -0.32261600       2.51328605       2.23568439      -0.26992793
B        3.63878000       0.94242000       5.41981000      -0.01444500       0.67937600       0.95779200       0.02408475       0.77682784       1.08707830
Si       1.19380000       0.26963000       0.19686000       0.54051800       0.24528300      -1.93219100       0.59622624      -0.00653361      -1.88733697
Si       4.57825000       3.47658000       1.16117000       0.15934200       1.26766700      -0.81102600       0.19926310       1.34699143      -0.75928807
Si       1.09558000       0.76720000       2.75124000       0.04909300      -1.52033200       1.50719200      -0.13175962      -1.63442840       1.27075077
54
Lattice="8.579999685 0.0 0.0 0.0 8.579999685 0.0 0.0 0.0 8.5799996" Properties=species:S:1:pos:R:3:REF_forces:R:3:MACE_forces:R:3 config_type=Fe34B10Si10 REF_energy=-356.0869274 MACE_energy=-357.1032031026312 pbc="T T T"
Fe       0.92877000       1.08311000       2.12831000      -0.53214900      -1.15432400       0.53007800      -0.61602782      -1.16433295       0.46554297
Fe       1.12794000       0.45096000       7.37327000      -2.86345100       2.18226700       1.45805300      -2.73656867       2.08198912       1.41140069
Fe       0.91289000       3.61082000       1.96264000      -1.66570100       0.50807500      -4.76654600      -1.57797672       0.10038940      -4.46467048
Fe       0.97242000       3.25012000       3.83975000      -0.85629000      -1.23507100      -0.91491200      -1.09528935      -1.04891706      -0.64419745
Fe       1.43574000       3.84332000       5.84621000      -1.94378300      -0.72872400       4.94145300      -2.06208519      -0.53668481       4.72422329
Fe       0.45897000       5.99881000       1.32384000       1.86679900       1.45939200      -0.33976700       1.67120755       1.46358748      -0.16751141
Fe       0.05714000       6.25044000       6.01250000       0.66851500      -0.88142700       1.67028200       0.62240323      -0.75084304       1.73133898
Fe       1.87526000       7.05991000       7.27744000      -5.90957000       6.81146600       5.95768600      -5.62653273       6.97128750       5.78743005
Fe       4.21220000       0.80536000       3.81626000       0.44958900      -1.97725700       0.54591300       0.53432888      -1.80105344       0.46386591
Fe       2.64196000       0.75311000       5.88605000       0.80305000      -0.92688600      -1.50973400       0.49792022      -1.09028563      -1.51473026
Fe       2.51735000       4.27963000       7.86001000      -0.17185400       2.88247300       0.00075600      -0.18441485       3.06056564       0.07107282
Fe       2.46175000       4.76211000       4.38544000       2.27245000       6.36429500      -0.60000700       2.29470575       6.36832305      -0.47723379
Fe       3.99132000       4.46692000       6.09268000      -0.21521200      -1.96607600      -0.25853400      -0.33477117      -2.19879859      -0.14590583
Fe       4.03283000       6.20484000       2.50717000       0.32509400      -1.83048700       1.07686200       0.35567043      -1.77621064       1.10646667
Fe       2.62183000       8.12097000       1.25125000      -5.45108600      -1.04608100      -0.88869000      -5.59823486      -1.09262343      -0.67181994
Fe       2.34208000       7.49949000       3.33705000      -1.45221900       0.10179900       1.96325000      -1.30145871       0.10651625       1.58542260
Fe       4.67554000       0.98699000       8.35162000       1.97529500       0.95938300       0.07305200       1.71368909       0.86531878       0.33251433
Fe       4.68615000       2.28426000       1.60336000       6.03713100       4.39249100       1.56082500       6.16661740       4.36507141       1.11767977
Fe       4.95897000       4.28949000       0.91503000       1.24258400       3.77490300      -1.07876200       0.80061141       3.55395480      -1.17127851
Fe       5.62605000       3.84953000       3.25301000      -4.56775200       3.43217100       2.09526400      -4.72073924       3.43127042       1.94634348
Fe       5.63153000       5.70233000       4.67966000       0.04558900       0.36352900      -0.74034800       0.11159379      -0.04797624      -0.58377771
Fe       5.00954000       6.14620000       6.89198000       4.51113600      -2.60361300       1.43664400       4.56934340      -2.56460670       1.28742358
Fe       5.34723000       7.32984000       0.56425000       3.41130600      -7.55812200      -7.44238600       3.22022346      -7.15874195      -7.12826189
Fe       4.57141000       8.20633000       1.67615000      -2.51651100       6.57056000       9.11650700      -2.31054039       6.19163874       8.83613307
Fe       5.67084000       7.83697000       6.02451000      -0.02983000       3.57151200       0.33120700      -0.04691435       3.67918084       0.46255990
Fe       7.65837000       1.05332000       0.64336000       1.95813700       2.93603900      -3.62028800       1.78833079       2.79852767      -3.41515367
Fe       7.23579000       1.49494000       3.62009000       0.88838800      -1.50203300       3.00240400       1.06866052      -1.49952570       3.00417221
Fe       6.96409000       1.59543000       6.70415000       0.40175100      -2.57633900      -0.54943900       0.43725170      -2.38851539      -0.46859425
Fe       6.97946000       3.05325000       2.27831000       3.01329100      -2.85779700      -7.80747400       2.66311243      -2.88191806      -7.42175587
Fe       7.05854000       3.62734000       7.13255000       0.94483300       2.42104600       2.56329500       0.99479823       2.27421474       2.34932659
Fe       7.47490000       4.49325000       0.92243000      -3.13561000       0.06366500       0.11142200      -2.80469305       0.41050550      -0.12999404
Fe       7.76499000       5.40883000       4.05655000       3.42051700      -2.49950500       1.10150300       3.63214418      -2.67878906       1.13850428
Fe       6.91686000       6.16423000       2.38917000      -4.34160700       0.52717700      -3.24358900      -4.38499517       0.87668102      -3.26024580
Fe       7.31773000       7.39473000       4.73130000      -1.41907300       3.06948200       1.38572900      -1.45957592       2.98047319       1.32453460
B        1.63947000       5.44017000       2.85377000      -1.37965300       1.67099600      -0.34434500      -1.41482960       1.76801302      -0.53175042
B        3.47444000       1.29905000       1.69513000      -6.04542900      -7.46227000      -1.52467000      -6.13261083      -6.99991528      -1.30637233
B        2.31673000       1.42955000       3.77944000      -1.85652800      -2.14982900       3.21956500      -1.84831887      -1.95088302       3.29755919
B        3.17088000       0.01260000       8.16689000      -2.14308300      -0.12737100      -3.63430700      -2.09257976       0.14305656      -3.46866009
B        2.48887000       2.23189000       2.44876000      -1.30373000       3.96631200      -0.94871100      -0.91131968       3.68133979      -1.24798116
B        3.55016000       3.21990000       0.17024000       2.13469500      -3.52588700       0.23974700       2.15208710      -3.59738465       0.38812423
B        3.12966000       3.07291000       4.24572000      -6.99085300       0.34377600      -0.16579100      -6.82843716       0.09496720      -0.16571586
B        2.38358000       5.95301000       6.34325000       2.25901800      -8.76611800      -6.31465800       2.12118477      -9.05697382      -6.43094073
B        4.46260000       2.62992000       4.23823000       7.08507900      -1.75449200       0.40993300       6.95595010      -1.82251345       0.34372120
B        7.51183000       3.59374000       3.85724000       1.49621300      -1.20378300       3.39561400       1.49326087      -1.00415965       3.22329224
Si       0.50050000       1.66927000       5.10425000      -1.02554400      -2.67263500       2.61432900      -0.78548015      -2.98076111       2.55258837
Si       0.41923000       4.50138000       8.15701000       0.82744200      -0.47721100      -2.57541600       1.10180909      -0.44032805      -2.75320179
Si       2.90131000       4.25049000       1.93860000       2.71957100       0.04497600      -0.88170100       2.69323752       0.00117762      -1.02806843
Si       3.74353000       6.85388000       5.19884000      -1.20766000       1.80214700      -2.20114300      -1.08075941       1.94326573      -2.07413110
Si       3.54209000       6.47938000       8.21357000      -0.45014500      -1.75854100       4.24377300      -0.57089110      -2.01623983       4.41991080
Si       4.55252000       1.74669000       6.40118000       0.28733400       0.20348600      -1.69136000       0.28837726       0.22656288      -1.65863790
Si       5.87020000       3.30923000       5.41310000       1.93974000       0.55942400      -1.14043100       1.68422776       0.82755138      -1.24875107
Si       6.68392000       0.09389000       2.07850000      -2.78148600      -1.30329400       2.70552900      -2.55846217      -1.24038081       2.86456756
Si       7.30980000       7.36953000       0.08595000       4.18267400      -0.22507900      -1.67891000       4.42425020      -0.37126776      -1.74689700
Si       8.41387000       7.50606000       2.97540000       5.08859000       1.78741200      -0.88875800       5.02750979       1.89520043      -0.90948058
54
Lattice="8.579999685 0.0 0.0 0.0 8.579999685 0.0 0.0 0.0 8.5799996" Properties=species:S:1:pos:R:3:REF_forces:R:3:MACE_forces:R:3 config_type=Fe34B10Si10 REF_energy=-359.84864784 MACE_energy=-360.47706774109565 pbc="T T T"
Fe       0.39531000       2.37288000       0.87042000       3.27925500       2.43832800      -1.60261100       3.16807334       2.61421772      -1.70806421
Fe       0.75383000       1.65209000       3.11094000       1.30783500      -0.34615400      -0.09267000       1.38022350      -0.69294411       0.04883256
Fe       1.33201000       3.79282000       7.26231000      -2.40668100      -1.18131200       0.32245500      -2.54271755      -1.19545012       0.18643886
Fe       0.64436000       4.41396000       2.97573000       2.42004200      -2.26182600       0.38963900       2.46737418      -2.06228239       0.21498425
Fe       0.14751000       6.42079000       3.51005000      -3.07002100       1.32407200      -2.30638400      -3.18102279       1.34397393      -2.49356849