54
Lattice="8.579999685 0.0 0.0 0.0 8.579999685 0.0 0.0 0.0 8.5799996" Properties=species:S:1:pos:R:3:REF_forces:R:3:MACE_forces:R:3 config_type=Fe34B10Si10 REF_energy=-352.89092233 MACE_energy=-351.69422081813013 pbc="T T T"
Fe       1.46495000       0.71583000       1.12880000       3.73230100      -3.41607500      -3.76209700       3.51598154      -3.41194630      -3.37400201
Fe       0.56244000       2.07917000       1.96452000      -3.31290700       4.06628900       2.54508600      -3.33099955       4.02701736       2.29871521
Fe       0.86636000       2.12990000       5.00906000     -10.85567700      -2.87102900      12.20968700     -10.87227035      -2.91018125      12.13637586
Fe       0.24697000       2.61233000       7.83061000      -0.37811800      -2.03816900      -0.08744800      -0.35076046      -2.00592710       0.05376661
Fe       0.35437000       4.66395000       8.16447000      -1.30300600       1.62250000       0.84662400      -1.36990614       1.75237532       0.74769527
Fe       0.83543000       8.00840000       3.01492000       5.54921000      -2.55787300       0.52513800       5.66145971      -2.61291683       0.47186795
Fe       2.03952000       7.84431000       6.63062000      -4.28706100       1.82495200      -1.68802900      -4.08995158       1.98452109      -1.80925363
Fe       3.34318000       0.11090000       2.96052000      -0.46571400      -0.35056300       0.37864800      -0.46809066      -0.16140396       0.48165817
Fe       3.26317000       2.11539000       1.48699000      -3.47884800      -0.03222100       0.61542300      -3.38732718      -0.26003710       0.26466752
Fe       4.14313000       2.75755000       3.31065000      -0.71378000      -2.73118300       1.93004800      -0.59201035      -2.46164852       1.85666218
Fe       2.55051000       2.67374000       7.19710000      -2.55215900      -0.93589000       1.77261600      -2.18018181      -0.99947339       1.66098867
Fe       3.61327000       2.86500000       5.46497000       1.55763200       0.20514300      -0.56676300       1.44469030       0.29078634      -0.24178210
Fe       2.62400000       4.72550000       1.39174000      -1.08585200      -1.19598700       0.59645400      -1.31173100      -1.03694113       0.66142529
Fe       2.20317000       5.21693000       3.87451000      -3.92870900      -4.38103900      -4.92199500      -3.99066695      -4.44323252      -5.19711737
Fe       3.93082000       4.37819000       8.08226000       1.07616800       0.44807800      -0.99700400       0.87746289       0.18557169      -0.99367199
Fe       2.44961000       7.01753000       1.08943000       0.32119000      -1.55635000       3.27006500       0.40923857      -1.55344239       3.36982666
Fe       3.02500000       6.15780000       5.08193000      -1.08486800       1.64126100       3.95415400      -0.06189612       2.02225721       4.35294438
Fe       5.77712000       0.44616000       0.16142000      -2.43333700       0.07175000       4.13474700      -2.35268994       0.40886372       4.16848684
Fe       5.66964000       0.14892000       2.95259000      -3.67617900       1.90971100       0.12919700      -3.69300790       1.63063164       0.35754352
Fe       5.39484000       2.66317000       1.55162000       4.08183700      -3.39937100       3.88213200       4.03001154      -3.73702974       4.24442773
Fe       5.91309000       3.40423000       8.31953000       8.90196200       5.48305700      -2.72562400       8.77107293       5.37763041      -2.77923263
Fe       4.96126000       4.63305000       3.41410000      -3.60269200      -2.00302700       2.25051900      -3.80908249      -2.38697002       2.48019207
Fe       5.11347000       6.81217000       1.78872000      -0.87770500       0.06714300      -1.61156800      -0.75641068       0.16780259      -1.70303943
Fe       5.00950000       6.45991000       8.24507000      -2.30619500      -0.19808200      -1.52355700      -2.19579139       0.02056949      -1.87778323
Fe       4.64263000       7.71190000       5.75084000       2.50156800       4.23919200      -1.55456800       2.55064821       4.27872299      -1.67329351
Fe       7.32285000       0.33022000       5.03535000      -0.99210900      -0.59745100       4.73628300      -0.90829393      -0.34219520       4.67717689
Fe       6.75330000       1.32958000       7.05071000       0.53851300       2.01290400       0.36400700       0.52306153       1.84691053       0.34831994
Fe       6.82686000       2.53028000       3.66692000      -0.08907100      -0.12987400      -0.26318300      -0.01034092      -0.17656600      -0.21169615
Fe       6.83617000       5.56618000       0.59386000       1.74434500       1.47371700      -3.32847200       1.74602461       1.67932300      -3.45646808
Fe       8.27091000       4.29855000       2.87718000       3.23308900       0.33980500       1.37352500       3.05162674       0.15883304       1.35052025
Fe       6.58774000       4.90718000       4.97515000      -1.87594500       0.58060600      -0.05143700      -1.98520365       0.62482108      -0.43666843
Fe       6.86773000       6.79187000       3.27473000       1.52763600      -2.76254700       0.67579100       1.43230834      -2.42288771       0.37047901
Fe       8.09083000       8.29691000       0.84396000      -4.18921500      -1.95965200       9.56442300      -4.07887699      -2.13145956       9.66363053
Fe       6.62133000       7.67903000       7.47205000      -3.65417600       1.51975600      -3.32990400      -4.19156137       1.27572097      -3.48379014
B        3.45077000       6.81738000       6.75435000       2.04131500      -2.79808300       3.80923700       1.92791947      -2.99136165       3.89091162
B        4.67436000       1.10514000       4.73414000       0.75036200       0.95391600      -0.52852700       0.78410594       1.01098250      -0.41987922
B        6.18153000       2.20088000       5.47737000      -4.49435700      -3.20609500      -2.27763700      -4.64709613      -3.15558761      -2.52853434
B        5.08133000       4.10197000       6.35983000       0.35152900       0.25548900      -0.65354500       0.47079059       0.18251959      -0.57053256
B        4.48663000       4.29393000       1.40792000      -0.27448100       1.04603100       0.21283300      -0.24483212       1.28310168       0.19643701
B        4.96286000       5.88068000       6.14703000       0.60492000      -1.85032800       0.29314600       0.38923760      -1.81659457       0.13752597
B        8.17242000       5.65216000       5.55863000       1.00443800       0.65677900      -0.69824300       1.02799576       0.51014657      -0.25047483
B        7.98743000       6.92663000       6.60530000       5.86774900       2.58695800      -4.05103700       5.78940741       2.37408367      -3.30925945
B        7.10769000       5.72812000       6.91109000      -2.33709700      -3.34606800       1.34633400      -2.14501122      -3.44765941       1.43587363
B        7.81665000       6.81498000       8.33858000       5.04350100      -2.41043400       0.97359300       4.97357398      -2.54430582       0.37775867
Si       0.06983000       0.14925000       7.74742000       4.12649000       2.60901100      -8.87608100       3.88423474       2.47267936      -8.77278349
Si       1.93337000       2.41223000       3.74634000      10.14534600       2.98113100     -12.18526000      10.11615682       2.99684982     -11.92190244
Si       0.75978000       6.02813000       1.69309000      -4.13401100      -0.74920300       1.02787300      -4.10285399      -0.87911787       0.89874411
Si       2.22023000       5.10313000       7.16329000      -1.58663400       1.19675500      -1.89967800      -1.62728826       1.20481269      -1.88507739
Si       3.27754000       8.17117000       8.35443000       4.04667900       4.58101600      -2.24829100       3.88373502       4.45354579      -2.35569958
Si       4.48145000       2.18337000       8.34202000      -5.72220500      -5.96162700      -4.99603400      -5.46148779      -5.82361226      -5.25216543
Si       6.36439000       4.54151000       2.12641000       2.28764700      -2.33178900       1.39384200       2.60280025      -2.19625343       1.18367638
Si       4.52267000       6.51460000       3.75633000       0.42177200       5.22743800       1.25328700       0.12333035       5.33624965       1.37689234
Si       7.68278000       0.22257000       3.11016000      -0.17295300       4.89916800      -3.86478000      -0.15953796       4.87807954      -3.99834272
Si       7.35363000       3.38410000       6.13231000       4.40786200       1.27045000       2.62604800       4.38828406       1.47334200       2.98725987
54
Lattice="8.579999685 0.0 0.0 0.0 8.579999685 0.0 0.0 0.0 8.5799996" Properties=species:S:1:pos:R:3:REF_forces:R:3:MACE_forces:R:3 config_type=Fe34B10Si10 REF_energy=-354.71875992 MACE_energy=-353.64870040896017 pbc="T T T"
Fe       0.43313000       1.19321000       2.96848000       1.47291300       2.99028000       0.61180900       1.56586294       2.92984685       0.42849411
Fe       0.91365000       1.12516000       8.09995000       2.76260400      -2.00335600       1.20968300       2.42682565      -1.69669876       1.19305685
Fe       1.17142000       2.67870000       5.23446000      -1.90323000       6.04651700       0.58026800      -1.61915161       6.10083642       0.33863913
Fe       0.60772000       3.85484000       0.87278000       2.66909500       4.89444800       4.53699300       2.71888905       5.07245307       4.15366842
Fe       1.41565000       3.44858000       3.01161000      -0.29549500       2.03729500      -0.74017400      -0.03702891       1.98471439      -0.77531475
Fe       0.04226000       2.91249000       8.09734000      -3.39897200      -2.84207300      -2.69442200      -2.89704999      -2.99401928      -2.58179008
Fe       1.33282000       7.09057000       5.22634000      -0.45239700      -1.35392500       0.92503500      -0.19101053      -1.42039766       0.89909547
Fe       2.06045000       7.92051000       0.98063000      -3.11321000      -0.30108300      -2.49280600      -3.28784898      -0.43594483      -2.60502273
Fe       2.03627000       8.24295000       3.50701000      -1.42216600       4.38122900       0.88517600      -1.54693175       4.08966314       0.65142918
Fe       0.01253000       8.02686000       7.00667000       2.58679700       0.98610200     -11.80201700       2.50485612       0.85993343     -12.21994035
Fe       3.00353000       0.57289000       6.13981000      -1.03922300       0.18357300       0.93137300      -0.76075410       0.17394358       0.98135141
Fe       3.69949000       2.65196000       7.51811000       2.76433000      -4.34399200      -3.80269000       2.57564355      -4.14172087      -3.81155468
Fe       2.94478000       6.44154000       3.03987000       7.21319500      -3.66655800      -1.17614100       7.01038655      -3.39722632      -1.03236315
Fe       2.94309000       5.75189000       6.64956000      -6.24071800      -0.74678300       3.86021800      -6.41737058      -0.70766154       4.04635000
Fe       3.71160000       8.39321000       1.86324000       2.24845700      -0.43546600       0.28887200       2.52080242      -0.05791277       0.72112164
Fe       4.07810000       8.43915000       4.32840000       2.88035800       1.28304800      -0.49181300       2.85072917       1.28652571      -0.84893883
Fe       5.57499000       0.73262000       6.31633000      -3.12774100      -1.68249800      -0.98058200      -2.74445398      -1.79020072      -0.94282528
Fe       4.70712000       1.94493000       1.65492000      -2.04675700       4.97917500      -3.67899600      -2.08603099       4.66104880      -3.43979815
Fe       4.73401000       4.18392000       1.24748000       0.71501700       1.80608500      -0.06999200       0.69510984       1.96915666      -0.14648794
Fe       4.56687000       4.22266000       4.39618000       0.73801700       3.32591500      -2.10569900       0.42600811       3.20487196      -2.06300030
Fe       4.51224000       4.61167000       7.05684000       2.53211900      -0.41024200       0.53825400       2.92352082      -0.63870543       0.49119322
Fe       6.32808000       6.81945000       4.24288000      -3.20445400      -0.33519400      -1.28892300      -2.69825967      -0.22281932      -1.09537703
Fe       6.22240000       7.17309000       0.16230000      -3.30904600      -2.75215800       1.90373500      -3.38361393      -2.96480849       2.02133475
Fe       4.54224000       7.44382000       7.03838000       0.17895600      -5.02037800      -8.74618400       0.36555355      -5.21176861      -8.82517144
Fe       4.73272000       8.55832000       8.35561000      -0.10588400       8.96287400       6.54083400      -0.46463082       9.22513621       6.07692391
Fe       7.67285000       2.82429000       2.17742000      -2.12886900      -0.76272600      -2.06587500      -2.14131389      -0.76633502      -1.93447406
Fe       6.74071000       1.77406000       4.33655000       0.47479500       0.50025500      -0.42349800       0.04226741       0.37317207      -0.41281590
Fe       7.16362000       1.61896000       6.68131000       5.11373900       1.83737400       0.70818800       4.66325711       1.53928694       0.61510050
Fe       6.73653000       4.13840000       7.84564000       0.19062300       0.32905600       3.59274800       0.17087193       0.43387754       3.51920960
Fe       6.61248000       5.35948000       2.44590000       0.96755600      -0.77403900      -0.47053600       0.87718799      -0.66416193      -0.36605749
Fe       8.39074000       4.95678000       4.82580000       0.50677700       3.21370700       1.22596300       0.50129940       3.17481575       1.12207978
Fe       6.62275000       6.29700000       6.29237000       0.91106900      -0.58785400       1.74696000       0.82648377      -0.50300915       1.55933850
Fe       8.00875000       8.14674000       2.12563000      -1.25903800      -1.94608200      -3.37077000      -0.93286521      -1.78347368      -3.40714870
Fe       7.96861000       8.10559000       4.08816000       1.24434400       0.03207600       4.40361200       0.68102698      -0.04846556       4.60671456
B        3.14587000       1.61638000       2.59818000      -3.96044800      -1.57388800      -2.24367700      -3.97196338      -1.45621028      -1.99671272
B        4.07212000       1.93087000       3.78701000       0.55534200       0.12762300      -3.25123200       0.35544987       0.05894144      -3.29409500
B        2.24412000       1.90783000       4.05913000      -1.80380000      -9.70850100      -5.48536600      -1.91142038     -10.19454233      -5.56904622
B        2.90130000       3.06657000       4.45062000       2.48509300       7.60479000      -1.50334300       2.91588559       7.32444563      -1.47125435
B        2.82587000       3.80138000       5.80651000       0.21675600       2.27927400       3.92227300       0.18237216       2.33271126       4.07303915
B        2.60929000       5.04297000       1.66311000       0.12617300      -0.77075900      -0.46531300       0.02543525      -0.86799105      -0.45514138
B        2.47198000       4.95014000       4.32601000      -0.76752800      -1.31946700       0.35153300      -0.79428532      -1.22518699       0.53302918
B        2.73354000       7.81887000       7.66829000      -1.47869400      -0.15377200       0.00458000      -1.57948112      -0.15187604       0.25145185
B        5.68071000       2.28134000       7.79544000      -0.95924500       0.41857400       1.11780500      -0.97650628       0.42993123       1.12181993
B        7.77536000       3.70665000       3.76574000      -0.44877700      -1.48394500      -0.38974400      -0.51444484      -1.47788705      -0.09508216
Si       0.79518000       0.92195000       5.77957000      -1.66645900      -4.94136200      -1.10925300      -1.67814816      -4.94894868      -0.98452946
Si       0.88055000       4.20706000       6.73551000       1.15626000       3.58432200      -0.32349000       1.09777596       3.60562288      -0.24169773
Si       1.15025000       6.44729000       2.43826000      -7.77651300      -1.83655100      -1.54918700      -7.74835074      -1.76174448      -1.70414807
Si       2.82820000       3.29548000       0.50208000      -4.05499500       1.58525200       5.32597100      -4.02908032       1.31357029       5.24832484
Si       4.14031000       6.38272000       0.30005000      -2.16949800      -2.44928300       2.57761000      -2.37669104      -2.36082412       2.40175753
Si       3.68345000       6.43010000       5.01209000       3.98893100       0.98565200      -2.13453700       3.86800631       1.18734504      -2.19900551
Si       5.73751000       0.59059000       2.53265000       5.08228400      -4.90021500       2.23852200       5.08619582      -4.80808663       2.55516553
Si       4.51163000       2.47994000       5.36819000       2.60737700      -2.86786400       7.12589500       2.79322052      -2.54070959       7.11526207
Si       6.43436000       3.75222000       5.86206000       1.38008400       0.66155200      -3.64612400       1.51716613       0.67583991      -3.62797233
Si       8.06432000       7.52318000       8.55473000       2.36409700      -3.06603600      11.34847700       2.60059653      -2.76835300      11.42181470
18
Lattice="6.5 0.0 0.0 0.0 6.5 0.0 0.0 0.0 6.5" Properties=species:S:1:pos:R:3:REF_forces:R:3:MACE_forces:R:3 config_type=Fe12B3Si3 REF_energy=-113.87843945 MACE_energy=-112.49055552744417 pbc="T T T"
Fe       5.40234000       5.43492000       1.53729000      -1.39532100       2.04028400       0.71142300      -1.08306157       1.85884420       0.70553244
Fe       2.09750000       2.10361000       0.54730000       2.35673700      -0.33103000       1.27254800       2.58238312      -0.25181423       1.58631870
Fe       2.84360000       1.73250000       3.81271000       2.28004000      -1.18251600      -0.27344700       2.33618968      -1.07600376      -0.14836745
Fe       0.77541000       4.93717000       1.04317000       1.56096300      -3.83372900       1.76362000       1.19974354      -3.39660322       1.67306016
Fe       0.07665000       3.70431000       3.74351000      -0.75952900      -0.39175400      -2.23189700      -1.34397658      -0.48548459      -2.22430143
Fe       4.77171000       3.58949000       4.78220000      -1.99219600      -4.62409700       0.48420500      -1.61598454      -4.52914289       0.39622524
Fe       4.12430000       1.49867000       1.46476000       0.29771700      -2.38794700       0.28396300       0.19905998      -2.68440517       0.16672144
Fe       0.95387000       5.17746000       5.28728000      -0.57085000      -0.50160400      -1.80733600      -0.93520644      -0.54893343      -1.37963020
Fe       1.93602000       3.09888000       2.36598000      -0.08855100       0.43128300      -0.27209000      -0.15658710       0.46373952      -0.81526078
Fe       5.69037000       1.28357000       4.20026000      -0.40866000      -0.49067900       0.18976600      -0.89383696      -0.38099712       0.18472229
Fe       1.94321000       2.86141000       5.39871000      -0.55906500       0.73218900      -1.80086600      -0.40638416       0.71839125      -2.03367956
Fe       4.33122000       5.38124000       5.25469000      -0.73272900       4.56545400       1.52017900      -0.50230814       4.39028106       1.61920324
B        0.37598000       1.64060000       1.21420000      -3.21263000       2.85095800       0.76078000      -2.80343275       2.66732768       0.62444784
B        1.88110000       4.04794000       3.96741000       2.48956600       2.45119300      -0.32261600       2.65672895       2.42414064      -0.20990509
B        3.63878000       0.94242000       5.41981000      -0.01444500       0.67937600       0.95779200       0.02906431       0.81901147       1.02043918
Si       1.19380000       0.26963000       0.19686000       0.54051800       0.24528300      -1.93219100       0.59422096       0.15392789      -1.73439966
Si       4.57825000       3.47658000       1.16117000       0.15934200       1.26766700      -0.81102600       0.14972675       1.50878451      -0.88800175
Si       1.09558000       0.76720000       2.75124000       0.04909300      -1.52033200       1.50719200      -0.00633905      -1.65106378       1.45687542
54
Lattice="8.579999685 0.0 0.0 0.0 8.579999685 0.0 0.0 0.0 8.5799996" Properties=species:S:1:pos:R:3:REF_forces:R:3:MACE_forces:R:3 config_type=Fe34B10Si10 REF_energy=-356.0869274 MACE_energy=-355.41130380003176 pbc="T T T"
Fe       0.92877000       1.08311000       2.12831000      -0.53214900      -1.15432400       0.53007800      -0.75090396      -1.12547346       0.40093050
Fe       1.12794000       0.45096000       7.37327000      -2.86345100       2.18226700       1.45805300      -2.77045375       1.93187301       1.34015023
Fe       0.91289000       3.61082000       1.96264000      -1.66570100       0.50807500      -4.76654600      -1.84263821       0.42665901      -4.89428103
Fe       0.97242000       3.25012000       3.83975000      -0.85629000      -1.23507100      -0.91491200      -1.16676998      -1.30760118      -0.05695399
Fe       1.43574000       3.84332000       5.84621000      -1.94378300      -0.72872400       4.94145300      -2.10556272      -0.70935815       4.88442410
Fe       0.45897000       5.99881000       1.32384000       1.86679900       1.45939200      -0.33976700       1.64082885       1.48073423      -0.17765766
Fe       0.05714000       6.25044000       6.01250000       0.66851500      -0.88142700       1.67028200       0.58604446      -0.75996907       1.61990378
Fe       1.87526000       7.05991000       7.27744000      -5.90957000       6.81146600       5.95768600      -5.72196055       7.35857967       6.00075548
Fe       4.21220000       0.80536000       3.81626000       0.44958900      -1.97725700       0.54591300       0.40164422      -1.83401562       0.38371622
Fe       2.64196000       0.75311000       5.88605000       0.80305000      -0.92688600      -1.50973400       0.44593285      -1.02331519      -1.49473131
Fe       2.51735000       4.27963000       7.86001000      -0.17185400       2.88247300       0.00075600      -0.00173837       2.88003595       0.11102874
Fe       2.46175000       4.76211000       4.38544000       2.27245000       6.36429500      -0.60000700       2.29180206       6.45021322      -0.84263259
Fe       3.99132000       4.46692000       6.09268000      -0.21521200      -1.96607600      -0.25853400      -0.20985499      -2.32506943      -0.19866825
Fe       4.03283000       6.20484000       2.50717000       0.32509400      -1.83048700       1.07686200       0.38554751      -1.77486122       1.02662237
Fe       2.62183000       8.12097000       1.25125000      -5.45108600      -1.04608100      -0.88869000      -5.45874720      -1.14981790      -0.63098878
Fe       2.34208000       7.49949000       3.33705000      -1.45221900       0.10179900       1.96325000      -1.29304287       0.15909092       1.61850178
Fe       4.67554000       0.98699000       8.35162000       1.97529500       0.95938300       0.07305200       1.69774512       0.93433105       0.28178054
Fe       4.68615000       2.28426000       1.60336000       6.03713100       4.39249100       1.56082500       6.22720962       4.29647163       1.06144436
Fe       4.95897000       4.28949000       0.91503000       1.24258400       3.77490300      -1.07876200       0.88532731       3.62221561      -1.22735421
Fe       5.62605000       3.84953000       3.25301000      -4.56775200       3.43217100       2.09526400      -4.51416814       3.47486092       1.90498536
Fe       5.63153000       5.70233000       4.67966000       0.04558900       0.36352900      -0.74034800       0.03323370       0.00339148      -0.57094497
Fe       5.00954000       6.14620000       6.89198000       4.51113600      -2.60361300       1.43664400       4.57218645      -2.30653273       1.44158217
Fe       5.34723000       7.32984000       0.56425000       3.41130600      -7.55812200      -7.44238600       3.58436384      -7.04949253      -7.38338617
Fe       4.57141000       8.20633000       1.67615000      -2.51651100       6.57056000       9.11650700      -2.79299935       6.02306619       8.81211168
Fe       5.67084000       7.83697000       6.02451000      -0.02983000       3.57151200       0.33120700       0.02455116       3.49355417       0.31479240
Fe       7.65837000       1.05332000       0.64336000       1.95813700       2.93603900      -3.62028800       1.85007719       2.82461227      -3.55281830
Fe       7.23579000       1.49494000       3.62009000       0.88838800      -1.50203300       3.00240400       0.90137943      -1.42936701       3.08636088
Fe       6.96409000       1.59543000       6.70415000       0.40175100      -2.57633900      -0.54943900       0.55321078      -2.49897306      -0.62356900
Fe       6.97946000       3.05325000       2.27831000       3.01329100      -2.85779700      -7.80747400       2.47480866      -2.97724964      -7.28265926
Fe       7.05854000       3.62734000       7.13255000       0.94483300       2.42104600       2.56329500       1.02427248       2.45285068       2.50729381
Fe       7.47490000       4.49325000       0.92243000      -3.13561000       0.06366500       0.11142200      -2.83513787       0.53872532      -0.07387802
Fe       7.76499000       5.40883000       4.05655000       3.42051700      -2.49950500       1.10150300       3.49491651      -2.55175200       1.16772326
Fe       6.91686000       6.16423000       2.38917000      -4.34160700       0.52717700      -3.24358900      -4.36419780       0.51710219      -3.23621023
Fe       7.31773000       7.39473000       4.73130000      -1.41907300       3.06948200       1.38572900      -1.54663728       2.91842188       1.49392952
B        1.63947000       5.44017000       2.85377000      -1.37965300       1.67099600      -0.34434500      -1.44463953       1.76804178      -0.52623231
B        3.47444000       1.29905000       1.69513000      -6.04542900      -7.46227000      -1.52467000      -5.86003889      -7.07564420      -0.97671950
B        2.31673000       1.42955000       3.77944000      -1.85652800      -2.14982900       3.21956500      -1.66227978      -1.95038548       3.41989822
B        3.17088000       0.01260000       8.16689000      -2.14308300      -0.12737100      -3.63430700      -1.96640930       0.07295860      -3.57693247
B        2.48887000       2.23189000       2.44876000      -1.30373000       3.96631200      -0.94871100      -0.87014579       3.78888747      -1.30661272
B        3.55016000       3.21990000       0.17024000       2.13469500      -3.52588700       0.23974700       2.07729132      -3.37726412       0.32155984
B        3.12966000       3.07291000       4.24572000      -6.99085300       0.34377600      -0.16579100      -7.01775493       0.19353362      -0.13344935
B        2.38358000       5.95301000       6.34325000       2.25901800      -8.76611800      -6.31465800       2.15441595      -9.32001235      -6.52849945
B        4.46260000       2.62992000       4.23823000       7.08507900      -1.75449200       0.40993300       7.19153736      -1.94204637       0.39325290
B        7.51183000       3.59374000       3.85724000       1.49621300      -1.20378300       3.39561400       1.56193678      -1.04385682       3.20971465
Si       0.50050000       1.66927000       5.10425000      -1.02554400      -2.67263500       2.61432900      -0.76431505      -2.92007397       2.68763493
Si       0.41923000       4.50138000       8.15701000       0.82744200      -0.47721100      -2.57541600       1.10270866      -0.43363868      -2.92783603
Si       2.90131000       4.25049000       1.93860000       2.71957100       0.04497600      -0.88170100       2.83548225      -0.01055558      -1.08662921
Si       3.74353000       6.85388000       5.19884000      -1.20766000       1.80214700      -2.20114300      -1.03273797       2.04095218      -2.08221823
Si       3.54209000       6.47938000       8.21357000      -0.45014500      -1.75854100       4.24377300      -0.52990453      -2.07215525       4.42861690
Si       4.55252000       1.74669000       6.40118000       0.28733400       0.20348600      -1.69136000       0.17160274       0.12092219      -1.53115436
Si       5.87020000       3.30923000       5.41310000       1.93974000       0.55942400      -1.14043100       1.57931300       0.82923496      -1.11413151
Si       6.68392000       0.09389000       2.07850000      -2.78148600      -1.30329400       2.70552900      -2.40037092      -1.20189517       2.73495738
Si       7.30980000       7.36953000       0.08595000       4.18267400      -0.22507900      -1.67891000       4.13094082      -0.46595064      -1.69684963
Si       8.41387000       7.50606000       2.97540000       5.08859000       1.78741200      -0.88875800       5.04309866       2.03500662      -0.91967348
54
Lattice="8.579999685 0.0 0.0 0.0 8.579999685 0.0 0.0 0.0 8.5799996" Properties=species:S:1:pos:R:3:REF_forces:R:3:MACE_forces:R:3 config_type=Fe34B10Si10 REF_energy=-359.84864784 MACE_energy=-358.44340745271114 pbc="T T T"
Fe       0.39531000       2.37288000       0.87042000       3.27925500       2.43832800      -1.60261100       3.19765116       2.66840187      -1.69504617
Fe       0.75383000       1.65209000       3.11094000       1.30783500      -0.34615400      -0.09267000       1.30519726      -0.88993917       0.13029407
Fe       1.33201000       3.79282000       7.26231000      -2.40668100      -1.18131200       0.32245500      -2.60643820      -1.14538206       0.34254147
Fe       0.64436000       4.41396000       2.97573000       2.42004200      -2.26182600       0.38963900       2.45151500      -1.99749476       0.38511743
Fe       0.14751000       6.42079000       3.51005000      -3.07002100       1.32407200      -2.30638400      -3.00355867       1.19450620      -2.25233062