54
Lattice="8.579999685 0.0 0.0 0.0 8.579999685 0.0 0.0 0.0 8.5799996" Properties=species:S:1:pos:R:3:REF_forces:R:3:MACE_forces:R:3 config_type=Fe34B10Si10 REF_energy=-352.89092233 MACE_energy=-353.1337046232762 pbc="T T T"
Fe       1.46495000       0.71583000       1.12880000       3.73230100      -3.41607500      -3.76209700       3.64186058      -3.22354319      -3.26354850
Fe       0.56244000       2.07917000       1.96452000      -3.31290700       4.06628900       2.54508600      -3.59511137       3.94399360       1.92684558
Fe       0.86636000       2.12990000       5.00906000     -10.85567700      -2.87102900      12.20968700     -10.72207633      -2.73880442      12.37357832
Fe       0.24697000       2.61233000       7.83061000      -0.37811800      -2.03816900      -0.08744800      -0.38768273      -2.68536873       0.28273807
Fe       0.35437000       4.66395000       8.16447000      -1.30300600       1.62250000       0.84662400      -1.56287328       2.41763178       1.03711411
Fe       0.83543000       8.00840000       3.01492000       5.54921000      -2.55787300       0.52513800       5.79649422      -2.88053704       1.10186149
Fe       2.03952000       7.84431000       6.63062000      -4.28706100       1.82495200      -1.68802900      -4.48439675       2.18840381      -1.75197710
Fe       3.34318000       0.11090000       2.96052000      -0.46571400      -0.35056300       0.37864800      -0.57877574      -0.15535068       0.70558145
Fe       3.26317000       2.11539000       1.48699000      -3.47884800      -0.03222100       0.61542300      -3.13547996       0.06599935      -0.35936391
Fe       4.14313000       2.75755000       3.31065000      -0.71378000      -2.73118300       1.93004800      -0.08049285      -1.90621715       1.57334753
Fe       2.55051000       2.67374000       7.19710000      -2.55215900      -0.93589000       1.77261600      -2.37154893      -1.05440874       1.95198930
Fe       3.61327000       2.86500000       5.46497000       1.55763200       0.20514300      -0.56676300       1.57320644       0.58023940      -0.95076690
Fe       2.62400000       4.72550000       1.39174000      -1.08585200      -1.19598700       0.59645400      -1.03515208      -1.24574419       0.65878195
Fe       2.20317000       5.21693000       3.87451000      -3.92870900      -4.38103900      -4.92199500      -3.72038205      -4.51046030      -5.58829889
Fe       3.93082000       4.37819000       8.08226000       1.07616800       0.44807800      -0.99700400       1.29116186       0.39362734      -0.23191944
Fe       2.44961000       7.01753000       1.08943000       0.32119000      -1.55635000       3.27006500       0.44918299      -1.32630953       2.70344668
Fe       3.02500000       6.15780000       5.08193000      -1.08486800       1.64126100       3.95415400       0.06076436       1.88692295       4.99599566
Fe       5.77712000       0.44616000       0.16142000      -2.43333700       0.07175000       4.13474700      -1.98437886       0.12593640       4.15553651
Fe       5.66964000       0.14892000       2.95259000      -3.67617900       1.90971100       0.12919700      -3.65797494       2.02954168       0.06791681
Fe       5.39484000       2.66317000       1.55162000       4.08183700      -3.39937100       3.88213200       3.67581951      -3.26526114       3.89202513
Fe       5.91309000       3.40423000       8.31953000       8.90196200       5.48305700      -2.72562400       7.98382193       5.55872803      -2.89943739
Fe       4.96126000       4.63305000       3.41410000      -3.60269200      -2.00302700       2.25051900      -3.69771749      -2.06240676       3.31077551
Fe       5.11347000       6.81217000       1.78872000      -0.87770500       0.06714300      -1.61156800      -0.77071918       0.05368705      -2.06477381
Fe       5.00950000       6.45991000       8.24507000      -2.30619500      -0.19808200      -1.52355700      -2.21440699      -0.55121264      -2.02357436
Fe       4.64263000       7.71190000       5.75084000       2.50156800       4.23919200      -1.55456800       2.70239189       4.44289435      -1.41884665
Fe       7.32285000       0.33022000       5.03535000      -0.99210900      -0.59745100       4.73628300      -0.72862352      -0.40569091       4.61674197
Fe       6.75330000       1.32958000       7.05071000       0.53851300       2.01290400       0.36400700       0.46350120       1.21930133       0.43164424
Fe       6.82686000       2.53028000       3.66692000      -0.08907100      -0.12987400      -0.26318300       0.21136625      -0.12156452      -0.55543965
Fe       6.83617000       5.56618000       0.59386000       1.74434500       1.47371700      -3.32847200       1.44633774       1.03959607      -3.34157310
Fe       8.27091000       4.29855000       2.87718000       3.23308900       0.33980500       1.37352500       3.10950016      -0.07086408       1.37228446
Fe       6.58774000       4.90718000       4.97515000      -1.87594500       0.58060600      -0.05143700      -2.47014262       1.55182114      -1.50640533
Fe       6.86773000       6.79187000       3.27473000       1.52763600      -2.76254700       0.67579100       1.46086261      -2.55748912       0.62859750
Fe       8.09083000       8.29691000       0.84396000      -4.18921500      -1.95965200       9.56442300      -3.79412035      -1.45353043       9.91003148
Fe       6.62133000       7.67903000       7.47205000      -3.65417600       1.51975600      -3.32990400      -4.36116061       1.39406078      -3.86959573
B        3.45077000       6.81738000       6.75435000       2.04131500      -2.79808300       3.80923700       2.12615046      -3.26667258       3.62829334
B        4.67436000       1.10514000       4.73414000       0.75036200       0.95391600      -0.52852700       0.29724552       0.08917513      -0.33415206
B        6.18153000       2.20088000       5.47737000      -4.49435700      -3.20609500      -2.27763700      -4.50468260      -2.72312291      -2.28408037
B        5.08133000       4.10197000       6.35983000       0.35152900       0.25548900      -0.65354500       0.49079665      -0.25400673       0.00534553
B        4.48663000       4.29393000       1.40792000      -0.27448100       1.04603100       0.21283300      -0.39036265       0.93936217       0.00319722
B        4.96286000       5.88068000       6.14703000       0.60492000      -1.85032800       0.29314600       0.15180237      -1.19927387       0.49380176
B        8.17242000       5.65216000       5.55863000       1.00443800       0.65677900      -0.69824300       2.58077524      -0.10312158      -0.66346206
B        7.98743000       6.92663000       6.60530000       5.86774900       2.58695800      -4.05103700       4.82737540       2.58743183      -2.71554947
B        7.10769000       5.72812000       6.91109000      -2.33709700      -3.34606800       1.34633400      -2.64866384      -3.12764961       1.92208783
B        7.81665000       6.81498000       8.33858000       5.04350100      -2.41043400       0.97359300       4.90652631      -3.11808230       0.32413972
Si       0.06983000       0.14925000       7.74742000       4.12649000       2.60901100      -8.87608100       4.22747392       2.76680294      -8.79792395
Si       1.93337000       2.41223000       3.74634000      10.14534600       2.98113100     -12.18526000       9.98776676       2.75444094     -11.71870552
Si       0.75978000       6.02813000       1.69309000      -4.13401100      -0.74920300       1.02787300      -3.65013749      -1.07788519       0.69145722
Si       2.22023000       5.10313000       7.16329000      -1.58663400       1.19675500      -1.89967800      -1.33646923       1.42572322      -1.91872934
Si       3.27754000       8.17117000       8.35443000       4.04667900       4.58101600      -2.24829100       3.75670690       4.77515338      -1.83411544
Si       4.48145000       2.18337000       8.34202000      -5.72220500      -5.96162700      -4.99603400      -5.76857030      -5.88920296      -4.79146317
Si       6.36439000       4.54151000       2.12641000       2.28764700      -2.33178900       1.39384200       2.17440789      -1.99430013       0.76127285
Si       4.52267000       6.51460000       3.75633000       0.42177200       5.22743800       1.25328700       0.38089011       4.88742477       0.71471338
Si       7.68278000       0.22257000       3.11016000      -0.17295300       4.89916800      -3.86478000      -0.39360979       4.48983531      -4.23319812
Si       7.35363000       3.38410000       6.13231000       4.40786200       1.27045000       2.62604800       4.27152331       1.36034666       2.87575767
54
Lattice="8.579999685 0.0 0.0 0.0 8.579999685 0.0 0.0 0.0 8.5799996" Properties=species:S:1:pos:R:3:REF_forces:R:3:MACE_forces:R:3 config_type=Fe34B10Si10 REF_energy=-354.71875992 MACE_energy=-353.69468126890786 pbc="T T T"
Fe       0.43313000       1.19321000       2.96848000       1.47291300       2.99028000       0.61180900       2.00925196       2.57704863       0.63822418
Fe       0.91365000       1.12516000       8.09995000       2.76260400      -2.00335600       1.20968300       2.68070261      -1.77422195       1.51544412
Fe       1.17142000       2.67870000       5.23446000      -1.90323000       6.04651700       0.58026800      -2.31067367       6.62034251       0.28047335
Fe       0.60772000       3.85484000       0.87278000       2.66909500       4.89444800       4.53699300       2.60058967       5.43882939       4.36963089
Fe       1.41565000       3.44858000       3.01161000      -0.29549500       2.03729500      -0.74017400       0.58646447       1.57094280      -0.36824161
Fe       0.04226000       2.91249000       8.09734000      -3.39897200      -2.84207300      -2.69442200      -3.95808909      -3.40154156      -3.42793866
Fe       1.33282000       7.09057000       5.22634000      -0.45239700      -1.35392500       0.92503500       0.04231445      -1.42237406       0.79022854
Fe       2.06045000       7.92051000       0.98063000      -3.11321000      -0.30108300      -2.49280600      -3.73671690      -0.45714854      -2.54277204
Fe       2.03627000       8.24295000       3.50701000      -1.42216600       4.38122900       0.88517600      -1.57439322       4.02679510       0.45817673
Fe       0.01253000       8.02686000       7.00667000       2.58679700       0.98610200     -11.80201700       2.18199925       0.69495104     -11.70252203
Fe       3.00353000       0.57289000       6.13981000      -1.03922300       0.18357300       0.93137300      -0.56913658       0.66429578       0.67542302
Fe       3.69949000       2.65196000       7.51811000       2.76433000      -4.34399200      -3.80269000       1.69033483      -3.88805274      -4.28462521
Fe       2.94478000       6.44154000       3.03987000       7.21319500      -3.66655800      -1.17614100       7.39092443      -2.65844435      -0.37646579
Fe       2.94309000       5.75189000       6.64956000      -6.24071800      -0.74678300       3.86021800      -6.00568254      -0.76396404       4.59762250
Fe       3.71160000       8.39321000       1.86324000       2.24845700      -0.43546600       0.28887200       3.20271411      -0.08012336       1.08876284
Fe       4.07810000       8.43915000       4.32840000       2.88035800       1.28304800      -0.49181300       2.70699319       1.75169135      -0.80574031
Fe       5.57499000       0.73262000       6.31633000      -3.12774100      -1.68249800      -0.98058200      -2.93153851      -2.46106369      -1.58824748
Fe       4.70712000       1.94493000       1.65492000      -2.04675700       4.97917500      -3.67899600      -1.20923581       4.66960247      -4.01341044
Fe       4.73401000       4.18392000       1.24748000       0.71501700       1.80608500      -0.06999200       0.77848988       1.61593819       0.12090916
Fe       4.56687000       4.22266000       4.39618000       0.73801700       3.32591500      -2.10569900       0.19024511       4.23234038      -2.68027613
Fe       4.51224000       4.61167000       7.05684000       2.53211900      -0.41024200       0.53825400       2.81290542      -0.23278293       0.32150714
Fe       6.32808000       6.81945000       4.24288000      -3.20445400      -0.33519400      -1.28892300      -2.78946649      -0.45362429      -1.20775207
Fe       6.22240000       7.17309000       0.16230000      -3.30904600      -2.75215800       1.90373500      -3.33825880      -3.01628216       1.86813021
Fe       4.54224000       7.44382000       7.03838000       0.17895600      -5.02037800      -8.74618400       0.02442211      -4.96248922      -7.70920523
Fe       4.73272000       8.55832000       8.35561000      -0.10588400       8.96287400       6.54083400      -1.11300026       8.16319348       5.26387767
Fe       7.67285000       2.82429000       2.17742000      -2.12886900      -0.76272600      -2.06587500      -2.45332563      -0.93766234      -2.22213696
Fe       6.74071000       1.77406000       4.33655000       0.47479500       0.50025500      -0.42349800       0.04465160       0.60713270      -0.62465734
Fe       7.16362000       1.61896000       6.68131000       5.11373900       1.83737400       0.70818800       5.20898606       1.79332046       1.07618353
Fe       6.73653000       4.13840000       7.84564000       0.19062300       0.32905600       3.59274800       0.11869830       1.39867970       3.87963760
Fe       6.61248000       5.35948000       2.44590000       0.96755600      -0.77403900      -0.47053600       0.66549848      -0.58959344      -0.43755673
Fe       8.39074000       4.95678000       4.82580000       0.50677700       3.21370700       1.22596300       0.98196587       3.02152965       1.19972498
Fe       6.62275000       6.29700000       6.29237000       0.91106900      -0.58785400       1.74696000       0.62994193      -0.59358432       1.92911843
Fe       8.00875000       8.14674000       2.12563000      -1.25903800      -1.94608200      -3.37077000      -1.42040050      -1.56410369      -3.98609236
Fe       7.96861000       8.10559000       4.08816000       1.24434400       0.03207600       4.40361200       1.06464090       0.40205822       4.64298545
B        3.14587000       1.61638000       2.59818000      -3.96044800      -1.57388800      -2.24367700      -3.70500087      -0.87170323      -1.35464954
B        4.07212000       1.93087000       3.78701000       0.55534200       0.12762300      -3.25123200       1.16909113      -1.35690519      -3.53035263
B        2.24412000       1.90783000       4.05913000      -1.80380000      -9.70850100      -5.48536600      -3.21796690     -11.38591078      -4.54305202
B        2.90130000       3.06657000       4.45062000       2.48509300       7.60479000      -1.50334300       3.36147698       8.51913056      -1.12621497
B        2.82587000       3.80138000       5.80651000       0.21675600       2.27927400       3.92227300       0.60858749       2.17568380       3.08791157
B        2.60929000       5.04297000       1.66311000       0.12617300      -0.77075900      -0.46531300      -0.11932153      -0.75956933      -0.32229934
B        2.47198000       4.95014000       4.32601000      -0.76752800      -1.31946700       0.35153300      -0.91733139      -1.61484370       0.46287374
B        2.73354000       7.81887000       7.66829000      -1.47869400      -0.15377200       0.00458000      -0.96387300      -0.18117485      -0.01165707
B        5.68071000       2.28134000       7.79544000      -0.95924500       0.41857400       1.11780500      -0.54225969      -0.02987480       0.96015508
B        7.77536000       3.70665000       3.76574000      -0.44877700      -1.48394500      -0.38974400      -0.82458145      -1.49840675      -0.16577075
Si       0.79518000       0.92195000       5.77957000      -1.66645900      -4.94136200      -1.10925300      -1.30222434      -4.75421055      -0.87828134
Si       0.88055000       4.20706000       6.73551000       1.15626000       3.58432200      -0.32349000       1.19357896       3.26571722       0.05750284
Si       1.15025000       6.44729000       2.43826000      -7.77651300      -1.83655100      -1.54918700      -8.02146359      -1.54537520      -1.93978747
Si       2.82820000       3.29548000       0.50208000      -4.05499500       1.58525200       5.32597100      -3.60892865       1.25412899       4.58181969
Si       4.14031000       6.38272000       0.30005000      -2.16949800      -2.44928300       2.57761000      -2.06407500      -2.09063261       1.99533207
Si       3.68345000       6.43010000       5.01209000       3.98893100       0.98565200      -2.13453700       3.89978864       1.31033712      -2.17724869
Si       5.73751000       0.59059000       2.53265000       5.08228400      -4.90021500       2.23852200       4.49083100      -4.61561846       2.90384190
Si       4.51163000       2.47994000       5.36819000       2.60737700      -2.86786400       7.12589500       2.42239328      -2.72365061       7.13130980
Si       6.43436000       3.75222000       5.86206000       1.38008400       0.66155200      -3.64612400       0.95454689       0.23771049      -3.31636483
Si       8.06432000       7.52318000       8.55473000       2.36409700      -3.06603600      11.34847700       2.98391536      -3.32646732      11.44651202
18
Lattice="6.5 0.0 0.0 0.0 6.5 0.0 0.0 0.0 6.5" Properties=species:S:1:pos:R:3:REF_forces:R:3:MACE_forces:R:3 config_type=Fe12B3Si3 REF_energy=-113.87843945 MACE_energy=-119.57037885552828 pbc="T T T"
Fe       5.40234000       5.43492000       1.53729000      -1.39532100       2.04028400       0.71142300      -2.60532476       2.77871200       1.18422362
Fe       2.09750000       2.10361000       0.54730000       2.35673700      -0.33103000       1.27254800       2.85647729      -0.53182791       2.62248072
Fe       2.84360000       1.73250000       3.81271000       2.28004000      -1.18251600      -0.27344700       2.18829148      -1.15118604      -0.55340410
Fe       0.77541000       4.93717000       1.04317000       1.56096300      -3.83372900       1.76362000       2.53403300      -4.07976341       1.64517147
Fe       0.07665000       3.70431000       3.74351000      -0.75952900      -0.39175400      -2.23189700      -1.00536929      -0.45841489      -2.24392271
Fe       4.77171000       3.58949000       4.78220000      -1.99219600      -4.62409700       0.48420500      -1.42717522      -4.52479015       0.35483405
Fe       4.12430000       1.49867000       1.46476000       0.29771700      -2.38794700       0.28396300       0.36167165      -3.75302192       0.89117975
Fe       0.95387000       5.17746000       5.28728000      -0.57085000      -0.50160400      -1.80733600      -0.64093262       0.15776246      -1.34515483
Fe       1.93602000       3.09888000       2.36598000      -0.08855100       0.43128300      -0.27209000      -0.24955094       0.93781134      -1.01431837
Fe       5.69037000       1.28357000       4.20026000      -0.40866000      -0.49067900       0.18976600      -0.58758215      -0.49343386       0.32039474
Fe       1.94321000       2.86141000       5.39871000      -0.55906500       0.73218900      -1.80086600      -0.94062980       1.87958242      -2.30881485
Fe       4.33122000       5.38124000       5.25469000      -0.73272900       4.56545400       1.52017900      -0.86016586       4.63476353       1.28824113
B        0.37598000       1.64060000       1.21420000      -3.21263000       2.85095800       0.76078000      -3.52732727       2.96732870       0.12833802
B        1.88110000       4.04794000       3.96741000       2.48956600       2.45119300      -0.32261600       2.69591401       2.06793436      -0.31585028
B        3.63878000       0.94242000       5.41981000      -0.01444500       0.67937600       0.95779200       0.37654485       0.02986631       0.99345662
Si       1.19380000       0.26963000       0.19686000       0.54051800       0.24528300      -1.93219100       0.69806581      -0.14906636      -2.13466893
Si       4.57825000       3.47658000       1.16117000       0.15934200       1.26766700      -0.81102600      -0.12873704       1.49003173      -0.94799895
Si       1.09558000       0.76720000       2.75124000       0.04909300      -1.52033200       1.50719200       0.26179685      -1.80228832       1.43581290
54
Lattice="8.579999685 0.0 0.0 0.0 8.579999685 0.0 0.0 0.0 8.5799996" Properties=species:S:1:pos:R:3:REF_forces:R:3:MACE_forces:R:3 config_type=Fe34B10Si10 REF_energy=-356.0869274 MACE_energy=-355.8036516725504 pbc="T T T"
Fe       0.92877000       1.08311000       2.12831000      -0.53214900      -1.15432400       0.53007800      -0.35580832      -0.46173414       0.65487219
Fe       1.12794000       0.45096000       7.37327000      -2.86345100       2.18226700       1.45805300      -2.58980477       2.10376437       1.82959748
Fe       0.91289000       3.61082000       1.96264000      -1.66570100       0.50807500      -4.76654600      -2.48447332      -0.04388767      -4.35973800
Fe       0.97242000       3.25012000       3.83975000      -0.85629000      -1.23507100      -0.91491200      -0.18746412      -0.60961563      -0.24461615
Fe       1.43574000       3.84332000       5.84621000      -1.94378300      -0.72872400       4.94145300      -1.68333055      -0.87789815       4.00469506
Fe       0.45897000       5.99881000       1.32384000       1.86679900       1.45939200      -0.33976700       2.12199126       1.85813146      -0.40403677
Fe       0.05714000       6.25044000       6.01250000       0.66851500      -0.88142700       1.67028200       1.29297320      -1.17868557       1.86855241
Fe       1.87526000       7.05991000       7.27744000      -5.90957000       6.81146600       5.95768600      -5.90600569       7.22858880       5.21430550
Fe       4.21220000       0.80536000       3.81626000       0.44958900      -1.97725700       0.54591300       0.35092214      -1.53374646      -0.22589798
Fe       2.64196000       0.75311000       5.88605000       0.80305000      -0.92688600      -1.50973400       0.58127907      -0.65020238      -1.55689022
Fe       2.51735000       4.27963000       7.86001000      -0.17185400       2.88247300       0.00075600      -0.56437054       2.54518382      -0.69715828
Fe       2.46175000       4.76211000       4.38544000       2.27245000       6.36429500      -0.60000700       2.22864444       5.29516089      -0.96702185
Fe       3.99132000       4.46692000       6.09268000      -0.21521200      -1.96607600      -0.25853400      -0.58889939      -2.19494787      -0.77093720
Fe       4.03283000       6.20484000       2.50717000       0.32509400      -1.83048700       1.07686200       0.63808491      -1.73953104       0.73705135
Fe       2.62183000       8.12097000       1.25125000      -5.45108600      -1.04608100      -0.88869000      -4.41012164      -1.27018368      -0.52553775
Fe       2.34208000       7.49949000       3.33705000      -1.45221900       0.10179900       1.96325000      -1.41321523       0.36065161       1.90908382
Fe       4.67554000       0.98699000       8.35162000       1.97529500       0.95938300       0.07305200       2.44343302       0.93793848       0.79449269
Fe       4.68615000       2.28426000       1.60336000       6.03713100       4.39249100       1.56082500       7.36360372       4.63173410       1.57277216
Fe       4.95897000       4.28949000       0.91503000       1.24258400       3.77490300      -1.07876200       1.82323692       3.44789366      -1.38668750
Fe       5.62605000       3.84953000       3.25301000      -4.56775200       3.43217100       2.09526400      -4.42327933       3.31336200       1.06200286
Fe       5.63153000       5.70233000       4.67966000       0.04558900       0.36352900      -0.74034800      -0.62006784      -0.24163167      -0.53418615
Fe       5.00954000       6.14620000       6.89198000       4.51113600      -2.60361300       1.43664400       3.61264630      -2.41785460       1.34185395
Fe       5.34723000       7.32984000       0.56425000       3.41130600      -7.55812200      -7.44238600       3.25744603      -6.76746779      -7.21774354
Fe       4.57141000       8.20633000       1.67615000      -2.51651100       6.57056000       9.11650700      -3.15919742       6.36206202       8.80445674
Fe       5.67084000       7.83697000       6.02451000      -0.02983000       3.57151200       0.33120700      -0.04150894       4.41002598       0.51828708
Fe       7.65837000       1.05332000       0.64336000       1.95813700       2.93603900      -3.62028800       1.61939791       2.95994798      -3.81611821
Fe       7.23579000       1.49494000       3.62009000       0.88838800      -1.50203300       3.00240400       0.39248935      -1.15707850       3.05445691
Fe       6.96409000       1.59543000       6.70415000       0.40175100      -2.57633900      -0.54943900       0.49347915      -3.25073231      -0.50570984
Fe       6.97946000       3.05325000       2.27831000       3.01329100      -2.85779700      -7.80747400       2.38961383      -3.72297525      -6.23665262
Fe       7.05854000       3.62734000       7.13255000       0.94483300       2.42104600       2.56329500       0.96777010       3.00767594       2.18600898
Fe       7.47490000       4.49325000       0.92243000      -3.13561000       0.06366500       0.11142200      -3.31094560       0.65840162      -0.65179904
Fe       7.76499000       5.40883000       4.05655000       3.42051700      -2.49950500       1.10150300       3.60202416      -2.30380421       0.80021618
Fe       6.91686000       6.16423000       2.38917000      -4.34160700       0.52717700      -3.24358900      -4.86024103       0.17621918      -2.80329790
Fe       7.31773000       7.39473000       4.73130000      -1.41907300       3.06948200       1.38572900      -1.19371214       3.34960814       0.86676868
B        1.63947000       5.44017000       2.85377000      -1.37965300       1.67099600      -0.34434500      -1.54523665       1.68354720      -0.05112512
B        3.47444000       1.29905000       1.69513000      -6.04542900      -7.46227000      -1.52467000      -5.95607829      -7.32731917      -0.87665539
B        2.31673000       1.42955000       3.77944000      -1.85652800      -2.14982900       3.21956500      -1.19102740      -1.58457271       2.55324044
B        3.17088000       0.01260000       8.16689000      -2.14308300      -0.12737100      -3.63430700      -1.70586735      -0.50884295      -2.97116940
B        2.48887000       2.23189000       2.44876000      -1.30373000       3.96631200      -0.94871100      -0.68448288       3.81136263       0.21278116
B        3.55016000       3.21990000       0.17024000       2.13469500      -3.52588700       0.23974700       1.54561779      -3.62735890       0.84555456
B        3.12966000       3.07291000       4.24572000      -6.99085300       0.34377600      -0.16579100      -7.89192396       0.27032351      -0.05142734
B        2.38358000       5.95301000       6.34325000       2.25901800      -8.76611800      -6.31465800       2.43671209      -9.55836281      -6.35459032
B        4.46260000       2.62992000       4.23823000       7.08507900      -1.75449200       0.40993300       6.52447769      -2.40274868      -0.30078085
B        7.51183000       3.59374000       3.85724000       1.49621300      -1.20378300       3.39561400       1.55486702      -1.00174261       3.52078238
Si       0.50050000       1.66927000       5.10425000      -1.02554400      -2.67263500       2.61432900      -0.68352870      -2.48985939       2.19783385
Si       0.41923000       4.50138000       8.15701000       0.82744200      -0.47721100      -2.57541600       1.10266371       0.02340705      -2.72350084
Si       2.90131000       4.25049000       1.93860000       2.71957100       0.04497600      -0.88170100       2.74814155      -0.11967153      -0.68164916
Si       3.74353000       6.85388000       5.19884000      -1.20766000       1.80214700      -2.20114300      -1.17359731       1.47542337      -1.63536165
Si       3.54209000       6.47938000       8.21357000      -0.45014500      -1.75854100       4.24377300      -0.34373900      -1.70491446       4.52112187
Si       4.55252000       1.74669000       6.40118000       0.28733400       0.20348600      -1.69136000      -0.18957596       0.49981895      -1.64486923
Si       5.87020000       3.30923000       5.41310000       1.93974000       0.55942400      -1.14043100       1.75041574       0.89830306      -0.81762354
Si       6.68392000       0.09389000       2.07850000      -2.78148600      -1.30329400       2.70552900      -2.64830826      -1.71168340       2.46901599
Si       7.30980000       7.36953000       0.08595000       4.18267400      -0.22507900      -1.67891000       4.22519272      -0.90729930      -1.60059964
Si       8.41387000       7.50606000       2.97540000       5.08859000       1.78741200      -0.88875800       4.73868784       2.05781704      -0.92642276
54
Lattice="8.579999685 0.0 0.0 0.0 8.579999685 0.0 0.0 0.0 8.5799996" Properties=species:S:1:pos:R:3:REF_forces:R:3:MACE_forces:R:3 config_type=Fe34B10Si10 REF_energy=-359.84864784 MACE_energy=-360.0683177508577 pbc="T T T"
Fe       0.39531000       2.37288000       0.87042000       3.27925500       2.43832800      -1.60261100       3.02557060       2.75682016      -1.60571770
Fe       0.75383000       1.65209000       3.11094000       1.30783500      -0.34615400      -0.09267000       0.71451087      -0.59485594       0.27031526
Fe       1.33201000       3.79282000       7.26231000      -2.40668100      -1.18131200       0.32245500      -1.97326279      -0.62516648       0.65641248
Fe       0.64436000       4.41396000       2.97573000       2.42004200      -2.26182600       0.38963900       2.10462737      -2.25192075       0.60849568
Fe       0.14751000       6.42079000       3.51005000      -3.07002100       1.32407200      -2.30638400      -3.10835713       1.09751574      -2.31975587