54
Lattice="8.579999685 0.0 0.0 0.0 8.579999685 0.0 0.0 0.0 8.5799996" Properties=species:S:1:pos:R:3:REF_forces:R:3:MACE_forces:R:3 config_type=Fe34B10Si10 REF_energy=-352.89092233 MACE_energy=-353.26319728642267 pbc="T T T"
Fe       1.46495000       0.71583000       1.12880000       3.73230100      -3.41607500      -3.76209700       3.64237610      -3.43334017      -3.50638570
Fe       0.56244000       2.07917000       1.96452000      -3.31290700       4.06628900       2.54508600      -3.34410750       4.05683136       2.34151194
Fe       0.86636000       2.12990000       5.00906000     -10.85567700      -2.87102900      12.20968700     -10.87843190      -2.94399868      12.20636015
Fe       0.24697000       2.61233000       7.83061000      -0.37811800      -2.03816900      -0.08744800      -0.37551519      -2.04903069       0.08314566
Fe       0.35437000       4.66395000       8.16447000      -1.30300600       1.62250000       0.84662400      -1.35743115       1.77505775       0.77323968
Fe       0.83543000       8.00840000       3.01492000       5.54921000      -2.55787300       0.52513800       5.61210833      -2.63431685       0.47240073
Fe       2.03952000       7.84431000       6.63062000      -4.28706100       1.82495200      -1.68802900      -4.08787899       2.02787815      -1.73060318
Fe       3.34318000       0.11090000       2.96052000      -0.46571400      -0.35056300       0.37864800      -0.49807297      -0.16713863       0.45316109
Fe       3.26317000       2.11539000       1.48699000      -3.47884800      -0.03222100       0.61542300      -3.30312774      -0.25036542       0.25950681
Fe       4.14313000       2.75755000       3.31065000      -0.71378000      -2.73118300       1.93004800      -0.69519147      -2.44368787       1.88003433
Fe       2.55051000       2.67374000       7.19710000      -2.55215900      -0.93589000       1.77261600      -2.24565685      -1.02649223       1.69133862
Fe       3.61327000       2.86500000       5.46497000       1.55763200       0.20514300      -0.56676300       1.45637004       0.28834378      -0.29030299
Fe       2.62400000       4.72550000       1.39174000      -1.08585200      -1.19598700       0.59645400      -1.33090460      -0.98037467       0.67389161
Fe       2.20317000       5.21693000       3.87451000      -3.92870900      -4.38103900      -4.92199500      -3.93042198      -4.33820379      -5.08843517
Fe       3.93082000       4.37819000       8.08226000       1.07616800       0.44807800      -0.99700400       0.94428818       0.23060780      -1.00017238
Fe       2.44961000       7.01753000       1.08943000       0.32119000      -1.55635000       3.27006500       0.44120899      -1.59239079       3.35079154
Fe       3.02500000       6.15780000       5.08193000      -1.08486800       1.64126100       3.95415400      -0.30392624       1.75758226       4.08144405
Fe       5.77712000       0.44616000       0.16142000      -2.43333700       0.07175000       4.13474700      -2.41590185       0.41211517       4.17434925
Fe       5.66964000       0.14892000       2.95259000      -3.67617900       1.90971100       0.12919700      -3.68725291       1.65629581       0.31834885
Fe       5.39484000       2.66317000       1.55162000       4.08183700      -3.39937100       3.88213200       3.98880979      -3.76446973       4.15463666
Fe       5.91309000       3.40423000       8.31953000       8.90196200       5.48305700      -2.72562400       8.73923130       5.39181829      -2.76066746
Fe       4.96126000       4.63305000       3.41410000      -3.60269200      -2.00302700       2.25051900      -3.88704292      -2.36870261       2.40124904
Fe       5.11347000       6.81217000       1.78872000      -0.87770500       0.06714300      -1.61156800      -0.73373022       0.13312629      -1.66477971
Fe       5.00950000       6.45991000       8.24507000      -2.30619500      -0.19808200      -1.52355700      -2.20909488      -0.02435691      -1.77026255
Fe       4.64263000       7.71190000       5.75084000       2.50156800       4.23919200      -1.55456800       2.55693295       4.28495926      -1.60815233
Fe       7.32285000       0.33022000       5.03535000      -0.99210900      -0.59745100       4.73628300      -0.95414279      -0.34951354       4.69342651
Fe       6.75330000       1.32958000       7.05071000       0.53851300       2.01290400       0.36400700       0.48725167       1.86464189       0.32554371
Fe       6.82686000       2.53028000       3.66692000      -0.08907100      -0.12987400      -0.26318300       0.03259192      -0.18924366      -0.19867975
Fe       6.83617000       5.56618000       0.59386000       1.74434500       1.47371700      -3.32847200       1.77778360       1.74241346      -3.48471208
Fe       8.27091000       4.29855000       2.87718000       3.23308900       0.33980500       1.37352500       3.08310040       0.17938158       1.32392081
Fe       6.58774000       4.90718000       4.97515000      -1.87594500       0.58060600      -0.05143700      -2.06725901       0.59627745      -0.49098471
Fe       6.86773000       6.79187000       3.27473000       1.52763600      -2.76254700       0.67579100       1.46932262      -2.44068653       0.36341701
Fe       8.09083000       8.29691000       0.84396000      -4.18921500      -1.95965200       9.56442300      -4.17509937      -2.22519296       9.64332318
Fe       6.62133000       7.67903000       7.47205000      -3.65417600       1.51975600      -3.32990400      -3.99593564       1.29719077      -3.46899573
B        3.45077000       6.81738000       6.75435000       2.04131500      -2.79808300       3.80923700       1.96835080      -2.89122017       3.90930019
B        4.67436000       1.10514000       4.73414000       0.75036200       0.95391600      -0.52852700       0.79412281       0.96264418      -0.42377141
B        6.18153000       2.20088000       5.47737000      -4.49435700      -3.20609500      -2.27763700      -4.63257064      -3.15586930      -2.47842390
B        5.08133000       4.10197000       6.35983000       0.35152900       0.25548900      -0.65354500       0.48537466       0.26258524      -0.56116255
B        4.48663000       4.29393000       1.40792000      -0.27448100       1.04603100       0.21283300      -0.23738295       1.23490737       0.22167220
B        4.96286000       5.88068000       6.14703000       0.60492000      -1.85032800       0.29314600       0.45684003      -1.83837400       0.12506682
B        8.17242000       5.65216000       5.55863000       1.00443800       0.65677900      -0.69824300       1.07520391       0.68312157      -0.23123561
B        7.98743000       6.92663000       6.60530000       5.86774900       2.58695800      -4.05103700       5.77282362       2.30385530      -3.51303451
B        7.10769000       5.72812000       6.91109000      -2.33709700      -3.34606800       1.34633400      -2.13150673      -3.43200807       1.49342821
B        7.81665000       6.81498000       8.33858000       5.04350100      -2.41043400       0.97359300       4.98345606      -2.58041298       0.48109626
Si       0.06983000       0.14925000       7.74742000       4.12649000       2.60901100      -8.87608100       3.96119905       2.56549112      -8.81216402
Si       1.93337000       2.41223000       3.74634000      10.14534600       2.98113100     -12.18526000      10.20903954       3.04202936     -12.01270337
Si       0.75978000       6.02813000       1.69309000      -4.13401100      -0.74920300       1.02787300      -4.13280193      -0.87773796       0.95458289
Si       2.22023000       5.10313000       7.16329000      -1.58663400       1.19675500      -1.89967800      -1.66542188       1.16761820      -1.84242539
Si       3.27754000       8.17117000       8.35443000       4.04667900       4.58101600      -2.24829100       3.90270459       4.50634844      -2.36519621
Si       4.48145000       2.18337000       8.34202000      -5.72220500      -5.96162700      -4.99603400      -5.45261222      -5.88961182      -5.16142869
Si       6.36439000       4.54151000       2.12641000       2.28764700      -2.33178900       1.39384200       2.58283772      -2.14825684       1.23582079
Si       4.52267000       6.51460000       3.75633000       0.42177200       5.22743800       1.25328700       0.12358831       5.31752253       1.34955147
Si       7.68278000       0.22257000       3.11016000      -0.17295300       4.89916800      -3.86478000      -0.22408967       4.86059372      -3.93159775
Si       7.35363000       3.38410000       6.13231000       4.40786200       1.27045000       2.62604800       4.40559520       1.43375880       2.96071709
54
Lattice="8.579999685 0.0 0.0 0.0 8.579999685 0.0 0.0 0.0 8.5799996" Properties=species:S:1:pos:R:3:REF_forces:R:3:MACE_forces:R:3 config_type=Fe34B10Si10 REF_energy=-354.71875992 MACE_energy=-355.36501247196423 pbc="T T T"
Fe       0.43313000       1.19321000       2.96848000       1.47291300       2.99028000       0.61180900       1.47069535       2.89276488       0.38862232
Fe       0.91365000       1.12516000       8.09995000       2.76260400      -2.00335600       1.20968300       2.38509656      -1.81790526       1.09586923
Fe       1.17142000       2.67870000       5.23446000      -1.90323000       6.04651700       0.58026800      -1.67639369       6.13075438       0.36297699
Fe       0.60772000       3.85484000       0.87278000       2.66909500       4.89444800       4.53699300       2.66154870       5.09884881       4.11480043
Fe       1.41565000       3.44858000       3.01161000      -0.29549500       2.03729500      -0.74017400       0.00846495       1.92802593      -0.67791040
Fe       0.04226000       2.91249000       8.09734000      -3.39897200      -2.84207300      -2.69442200      -2.77698580      -3.00693762      -2.45367870
Fe       1.33282000       7.09057000       5.22634000      -0.45239700      -1.35392500       0.92503500      -0.23437475      -1.46367907       0.94438885
Fe       2.06045000       7.92051000       0.98063000      -3.11321000      -0.30108300      -2.49280600      -3.28224578      -0.43638145      -2.49278104
Fe       2.03627000       8.24295000       3.50701000      -1.42216600       4.38122900       0.88517600      -1.53238451       4.10199101       0.63049980
Fe       0.01253000       8.02686000       7.00667000       2.58679700       0.98610200     -11.80201700       2.47607713       0.87088545     -11.98817680
Fe       3.00353000       0.57289000       6.13981000      -1.03922300       0.18357300       0.93137300      -0.77527241       0.14943904       0.98193213
Fe       3.69949000       2.65196000       7.51811000       2.76433000      -4.34399200      -3.80269000       2.60441721      -4.13164048      -3.68706208
Fe       2.94478000       6.44154000       3.03987000       7.21319500      -3.66655800      -1.17614100       6.99249181      -3.45166460      -0.98747823
Fe       2.94309000       5.75189000       6.64956000      -6.24071800      -0.74678300       3.86021800      -6.43258057      -0.64604175       4.01805542
Fe       3.71160000       8.39321000       1.86324000       2.24845700      -0.43546600       0.28887200       2.37708411      -0.07651350       0.68122455
Fe       4.07810000       8.43915000       4.32840000       2.88035800       1.28304800      -0.49181300       2.84905337       1.30777101      -0.79640355
Fe       5.57499000       0.73262000       6.31633000      -3.12774100      -1.68249800      -0.98058200      -2.77723706      -1.74377165      -0.92647686
Fe       4.70712000       1.94493000       1.65492000      -2.04675700       4.97917500      -3.67899600      -2.11708793       4.77084350      -3.42467077
Fe       4.73401000       4.18392000       1.24748000       0.71501700       1.80608500      -0.06999200       0.71133521       1.96634991      -0.13550157
Fe       4.56687000       4.22266000       4.39618000       0.73801700       3.32591500      -2.10569900       0.50435261       3.17033797      -2.13085767
Fe       4.51224000       4.61167000       7.05684000       2.53211900      -0.41024200       0.53825400       2.95711039      -0.71860934       0.48385327
Fe       6.32808000       6.81945000       4.24288000      -3.20445400      -0.33519400      -1.28892300      -2.80841502      -0.23380322      -1.07414183
Fe       6.22240000       7.17309000       0.16230000      -3.30904600      -2.75215800       1.90373500      -3.48353431      -2.95995774       2.03020944
Fe       4.54224000       7.44382000       7.03838000       0.17895600      -5.02037800      -8.74618400       0.32023273      -5.28908525      -8.86983523
Fe       4.73272000       8.55832000       8.35561000      -0.10588400       8.96287400       6.54083400      -0.34514068       9.33040927       6.18893059
Fe       7.67285000       2.82429000       2.17742000      -2.12886900      -0.76272600      -2.06587500      -2.13661156      -0.81848408      -1.96926315
Fe       6.74071000       1.77406000       4.33655000       0.47479500       0.50025500      -0.42349800       0.07246055       0.40556237      -0.44154478
Fe       7.16362000       1.61896000       6.68131000       5.11373900       1.83737400       0.70818800       4.68544091       1.60743835       0.62683237
Fe       6.73653000       4.13840000       7.84564000       0.19062300       0.32905600       3.59274800       0.17500806       0.46702931       3.60347511
Fe       6.61248000       5.35948000       2.44590000       0.96755600      -0.77403900      -0.47053600       0.85878074      -0.66960346      -0.43228899
Fe       8.39074000       4.95678000       4.82580000       0.50677700       3.21370700       1.22596300       0.56715739       3.15294066       1.08525969
Fe       6.62275000       6.29700000       6.29237000       0.91106900      -0.58785400       1.74696000       0.82902885      -0.49211534       1.60673255
Fe       8.00875000       8.14674000       2.12563000      -1.25903800      -1.94608200      -3.37077000      -0.86272296      -1.89464758      -3.43443314
Fe       7.96861000       8.10559000       4.08816000       1.24434400       0.03207600       4.40361200       0.73032379       0.04697790       4.57527765
B        3.14587000       1.61638000       2.59818000      -3.96044800      -1.57388800      -2.24367700      -3.98656858      -1.48096922      -2.01486353
B        4.07212000       1.93087000       3.78701000       0.55534200       0.12762300      -3.25123200       0.37146530       0.15832782      -3.23105293
B        2.24412000       1.90783000       4.05913000      -1.80380000      -9.70850100      -5.48536600      -1.88723299     -10.05113244      -5.62887487
B        2.90130000       3.06657000       4.45062000       2.48509300       7.60479000      -1.50334300       2.84004178       7.24992088      -1.50667786
B        2.82587000       3.80138000       5.80651000       0.21675600       2.27927400       3.92227300       0.26379558       2.19809950       3.94904040
B        2.60929000       5.04297000       1.66311000       0.12617300      -0.77075900      -0.46531300      -0.02109893      -0.83809986      -0.46115496
B        2.47198000       4.95014000       4.32601000      -0.76752800      -1.31946700       0.35153300      -0.79698835      -1.21438417       0.43748816
B        2.73354000       7.81887000       7.66829000      -1.47869400      -0.15377200       0.00458000      -1.53593882      -0.16880852       0.22442412
B        5.68071000       2.28134000       7.79544000      -0.95924500       0.41857400       1.11780500      -0.97188809       0.39238241       1.08217615
B        7.77536000       3.70665000       3.76574000      -0.44877700      -1.48394500      -0.38974400      -0.53846847      -1.41735534      -0.08641712
Si       0.79518000       0.92195000       5.77957000      -1.66645900      -4.94136200      -1.10925300      -1.62107185      -4.99363762      -0.96957980
Si       0.88055000       4.20706000       6.73551000       1.15626000       3.58432200      -0.32349000       1.10868383       3.67125449      -0.22114407
Si       1.15025000       6.44729000       2.43826000      -7.77651300      -1.83655100      -1.54918700      -7.80201272      -1.72216278      -1.70060384
Si       2.82820000       3.29548000       0.50208000      -4.05499500       1.58525200       5.32597100      -4.05797326       1.38522671       5.24625312
Si       4.14031000       6.38272000       0.30005000      -2.16949800      -2.44928300       2.57761000      -2.32168897      -2.39091046       2.45989063
Si       3.68345000       6.43010000       5.01209000       3.98893100       0.98565200      -2.13453700       3.86091364       1.16691389      -2.17162113
Si       5.73751000       0.59059000       2.53265000       5.08228400      -4.90021500       2.23852200       5.10287306      -4.84970199       2.50253542
Si       4.51163000       2.47994000       5.36819000       2.60737700      -2.86786400       7.12589500       2.80726822      -2.58486348       7.09454338
Si       6.43436000       3.75222000       5.86206000       1.38008400       0.66155200      -3.64612400       1.49417212       0.71528970      -3.74081575
Si       8.06432000       7.52318000       8.55473000       2.36409700      -3.06603600      11.34847700       2.69654408      -2.77291790      11.24001887
18
Lattice="6.5 0.0 0.0 0.0 6.5 0.0 0.0 0.0 6.5" Properties=species:S:1:pos:R:3:REF_forces:R:3:MACE_forces:R:3 config_type=Fe12B3Si3 REF_energy=-113.87843945 MACE_energy=-113.06135567206434 pbc="T T T"
Fe       5.40234000       5.43492000       1.53729000      -1.39532100       2.04028400       0.71142300      -1.01171699       1.82160600       0.69786313
Fe       2.09750000       2.10361000       0.54730000       2.35673700      -0.33103000       1.27254800       2.56152347      -0.11882557       1.36467570
Fe       2.84360000       1.73250000       3.81271000       2.28004000      -1.18251600      -0.27344700       2.24372528      -0.99327691      -0.20763243
Fe       0.77541000       4.93717000       1.04317000       1.56096300      -3.83372900       1.76362000       1.22134532      -3.38188000       1.60682738
Fe       0.07665000       3.70431000       3.74351000      -0.75952900      -0.39175400      -2.23189700      -1.21239971      -0.47819269      -2.25115405
Fe       4.77171000       3.58949000       4.78220000      -1.99219600      -4.62409700       0.48420500      -1.62633469      -4.51914850       0.37820271
Fe       4.12430000       1.49867000       1.46476000       0.29771700      -2.38794700       0.28396300       0.25307954      -2.66943255       0.11170760
Fe       0.95387000       5.17746000       5.28728000      -0.57085000      -0.50160400      -1.80733600      -0.93792843      -0.65848087      -1.37282550
Fe       1.93602000       3.09888000       2.36598000      -0.08855100       0.43128300      -0.27209000      -0.21815495       0.47300072      -0.64875927
Fe       5.69037000       1.28357000       4.20026000      -0.40866000      -0.49067900       0.18976600      -0.84626209      -0.32240406       0.22780896
Fe       1.94321000       2.86141000       5.39871000      -0.55906500       0.73218900      -1.80086600      -0.45284415       0.67230514      -1.94637716
Fe       4.33122000       5.38124000       5.25469000      -0.73272900       4.56545400       1.52017900      -0.54631606       4.36193968       1.57203722
B        0.37598000       1.64060000       1.21420000      -3.21263000       2.85095800       0.76078000      -2.97232639       2.69891410       0.81275481
B        1.88110000       4.04794000       3.96741000       2.48956600       2.45119300      -0.32261600       2.66582398       2.43490286      -0.26913796
B        3.63878000       0.94242000       5.41981000      -0.01444500       0.67937600       0.95779200       0.11905789       0.80906453       1.09220490
Si       1.19380000       0.26963000       0.19686000       0.54051800       0.24528300      -1.93219100       0.62801788       0.01595291      -1.82277434
Si       4.57825000       3.47658000       1.16117000       0.15934200       1.26766700      -0.81102600       0.18215199       1.51745010      -0.80681988
Si       1.09558000       0.76720000       2.75124000       0.04909300      -1.52033200       1.50719200      -0.05044191      -1.66349488       1.46139818
54
Lattice="8.579999685 0.0 0.0 0.0 8.579999685 0.0 0.0 0.0 8.5799996" Properties=species:S:1:pos:R:3:REF_forces:R:3:MACE_forces:R:3 config_type=Fe34B10Si10 REF_energy=-356.0869274 MACE_energy=-356.9454077640467 pbc="T T T"
Fe       0.92877000       1.08311000       2.12831000      -0.53214900      -1.15432400       0.53007800      -0.72845876      -1.18760865       0.39564560
Fe       1.12794000       0.45096000       7.37327000      -2.86345100       2.18226700       1.45805300      -2.82071370       1.97018698       1.43287458
Fe       0.91289000       3.61082000       1.96264000      -1.66570100       0.50807500      -4.76654600      -1.72692224       0.37755191      -4.80975906
Fe       0.97242000       3.25012000       3.83975000      -0.85629000      -1.23507100      -0.91491200      -1.10070261      -1.24936055      -0.16362400
Fe       1.43574000       3.84332000       5.84621000      -1.94378300      -0.72872400       4.94145300      -2.07943014      -0.64112501       4.73691662
Fe       0.45897000       5.99881000       1.32384000       1.86679900       1.45939200      -0.33976700       1.63420474       1.51564582      -0.17434840
Fe       0.05714000       6.25044000       6.01250000       0.66851500      -0.88142700       1.67028200       0.68377953      -0.76860212       1.70330908
Fe       1.87526000       7.05991000       7.27744000      -5.90957000       6.81146600       5.95768600      -5.73874237       7.24039180       6.00000289
Fe       4.21220000       0.80536000       3.81626000       0.44958900      -1.97725700       0.54591300       0.47307709      -1.88782082       0.41548387
Fe       2.64196000       0.75311000       5.88605000       0.80305000      -0.92688600      -1.50973400       0.50732836      -1.03149620      -1.55020360
Fe       2.51735000       4.27963000       7.86001000      -0.17185400       2.88247300       0.00075600      -0.00318125       2.93497999       0.16171214
Fe       2.46175000       4.76211000       4.38544000       2.27245000       6.36429500      -0.60000700       2.18905651       6.36154073      -0.73429206
Fe       3.99132000       4.46692000       6.09268000      -0.21521200      -1.96607600      -0.25853400      -0.17038464      -2.27992675      -0.20339923
Fe       4.03283000       6.20484000       2.50717000       0.32509400      -1.83048700       1.07686200       0.41379924      -1.76565110       1.06536171
Fe       2.62183000       8.12097000       1.25125000      -5.45108600      -1.04608100      -0.88869000      -5.50692148      -1.13656655      -0.64934091
Fe       2.34208000       7.49949000       3.33705000      -1.45221900       0.10179900       1.96325000      -1.26376638       0.17649325       1.64605621
Fe       4.67554000       0.98699000       8.35162000       1.97529500       0.95938300       0.07305200       1.65953304       0.86938133       0.30409728
Fe       4.68615000       2.28426000       1.60336000       6.03713100       4.39249100       1.56082500       6.25095703       4.32220810       1.14598103
Fe       4.95897000       4.28949000       0.91503000       1.24258400       3.77490300      -1.07876200       0.82033600       3.57702386      -1.24051239
Fe       5.62605000       3.84953000       3.25301000      -4.56775200       3.43217100       2.09526400      -4.53386771       3.55455194       1.89790496
Fe       5.63153000       5.70233000       4.67966000       0.04558900       0.36352900      -0.74034800       0.01646811      -0.04730045      -0.59190476
Fe       5.00954000       6.14620000       6.89198000       4.51113600      -2.60361300       1.43664400       4.57812818      -2.37458178       1.44012133
Fe       5.34723000       7.32984000       0.56425000       3.41130600      -7.55812200      -7.44238600       3.50330901      -7.03097900      -7.25618012
Fe       4.57141000       8.20633000       1.67615000      -2.51651100       6.57056000       9.11650700      -2.69941409       6.05306220       8.71804346
Fe       5.67084000       7.83697000       6.02451000      -0.02983000       3.57151200       0.33120700      -0.03408486       3.60574179       0.33476510
Fe       7.65837000       1.05332000       0.64336000       1.95813700       2.93603900      -3.62028800       1.88482248       2.91225034      -3.55915749
Fe       7.23579000       1.49494000       3.62009000       0.88838800      -1.50203300       3.00240400       0.93984971      -1.48356682       3.08514919
Fe       6.96409000       1.59543000       6.70415000       0.40175100      -2.57633900      -0.54943900       0.52470944      -2.54356802      -0.58522230
Fe       6.97946000       3.05325000       2.27831000       3.01329100      -2.85779700      -7.80747400       2.46807921      -2.95552204      -7.28356277
Fe       7.05854000       3.62734000       7.13255000       0.94483300       2.42104600       2.56329500       1.03993008       2.48765045       2.50852735
Fe       7.47490000       4.49325000       0.92243000      -3.13561000       0.06366500       0.11142200      -2.88466030       0.48552126      -0.17531716
Fe       7.76499000       5.40883000       4.05655000       3.42051700      -2.49950500       1.10150300       3.48900718      -2.64588625       1.12116616
Fe       6.91686000       6.16423000       2.38917000      -4.34160700       0.52717700      -3.24358900      -4.32036499       0.57089313      -3.20884819
Fe       7.31773000       7.39473000       4.73130000      -1.41907300       3.06948200       1.38572900      -1.48249198       2.99105616       1.41113373
B        1.63947000       5.44017000       2.85377000      -1.37965300       1.67099600      -0.34434500      -1.51276212       1.78136418      -0.57703678
B        3.47444000       1.29905000       1.69513000      -6.04542900      -7.46227000      -1.52467000      -5.89506690      -7.13641971      -1.08603377
B        2.31673000       1.42955000       3.77944000      -1.85652800      -2.14982900       3.21956500      -1.69413489      -1.98610416       3.42834363
B        3.17088000       0.01260000       8.16689000      -2.14308300      -0.12737100      -3.63430700      -1.98942881       0.11391321      -3.57932065
B        2.48887000       2.23189000       2.44876000      -1.30373000       3.96631200      -0.94871100      -0.89897927       3.82260878      -1.29424163
B        3.55016000       3.21990000       0.17024000       2.13469500      -3.52588700       0.23974700       2.13552583      -3.42241792       0.30847329
B        3.12966000       3.07291000       4.24572000      -6.99085300       0.34377600      -0.16579100      -7.08711050       0.14597141      -0.16404219
B        2.38358000       5.95301000       6.34325000       2.25901800      -8.76611800      -6.31465800       2.15759200      -9.25190093      -6.58379643
B        4.46260000       2.62992000       4.23823000       7.08507900      -1.75449200       0.40993300       7.17941472      -1.87497287       0.45658052
B        7.51183000       3.59374000       3.85724000       1.49621300      -1.20378300       3.39561400       1.55165123      -1.07171734       3.22154053
Si       0.50050000       1.66927000       5.10425000      -1.02554400      -2.67263500       2.61432900      -0.78758909      -2.91560149       2.63788763
Si       0.41923000       4.50138000       8.15701000       0.82744200      -0.47721100      -2.57541600       1.06972073      -0.40084567      -2.86909455
Si       2.90131000       4.25049000       1.93860000       2.71957100       0.04497600      -0.88170100       2.89413283      -0.01144691      -1.08065517
Si       3.74353000       6.85388000       5.19884000      -1.20766000       1.80214700      -2.20114300      -1.06486123       2.07400784      -2.13122311
Si       3.54209000       6.47938000       8.21357000      -0.45014500      -1.75854100       4.24377300      -0.53864127      -2.01005496       4.43228083
Si       4.55252000       1.74669000       6.40118000       0.28733400       0.20348600      -1.69136000       0.23160195       0.12375732      -1.61472000
Si       5.87020000       3.30923000       5.41310000       1.93974000       0.55942400      -1.14043100       1.56770983       0.79838922      -1.07423733
Si       6.68392000       0.09389000       2.07850000      -2.78148600      -1.30329400       2.70552900      -2.44412303      -1.23600216       2.80506392
Si       7.30980000       7.36953000       0.08595000       4.18267400      -0.22507900      -1.67891000       4.11391077      -0.50279652      -1.67882950
Si       8.41387000       7.50606000       2.97540000       5.08859000       1.78741200      -0.88875800       5.02916979       1.98369975      -0.89551907
54
Lattice="8.579999685 0.0 0.0 0.0 8.579999685 0.0 0.0 0.0 8.5799996" Properties=species:S:1:pos:R:3:REF_forces:R:3:MACE_forces:R:3 config_type=Fe34B10Si10 REF_energy=-359.84864784 MACE_energy=-360.22434368008794 pbc="T T T"
Fe       0.39531000       2.37288000       0.87042000       3.27925500       2.43832800      -1.60261100       3.20986903       2.70176040      -1.75792060
Fe       0.75383000       1.65209000       3.11094000       1.30783500      -0.34615400      -0.09267000       1.28410809      -0.87669624       0.11416259
Fe       1.33201000       3.79282000       7.26231000      -2.40668100      -1.18131200       0.32245500      -2.59257840      -1.11420748       0.27051082
Fe       0.64436000       4.41396000       2.97573000       2.42004200      -2.26182600       0.38963900       2.49429543      -2.08634346       0.31057797
Fe       0.14751000       6.42079000       3.51005000      -3.07002100       1.32407200      -2.30638400      -3.07502990       1.28793700      -2.40199612