54
Lattice="8.579999685 0.0 0.0 0.0 8.579999685 0.0 0.0 0.0 8.5799996" Properties=species:S:1:pos:R:3:REF_forces:R:3:MACE_forces:R:3 config_type=Fe34B10Si10 REF_energy=-352.89092233 MACE_energy=-353.22421042258037 pbc="T T T"
Fe       1.46495000       0.71583000       1.12880000       3.73230100      -3.41607500      -3.76209700       3.76619785      -3.52530659      -3.72741655
Fe       0.56244000       2.07917000       1.96452000      -3.31290700       4.06628900       2.54508600      -3.38753955       4.14108388       2.43313051
Fe       0.86636000       2.12990000       5.00906000     -10.85567700      -2.87102900      12.20968700     -10.94192357      -2.93985968      12.16353418
Fe       0.24697000       2.61233000       7.83061000      -0.37811800      -2.03816900      -0.08744800      -0.31038501      -2.06178043       0.13951786
Fe       0.35437000       4.66395000       8.16447000      -1.30300600       1.62250000       0.84662400      -1.36463067       1.64531731       0.80995898
Fe       0.83543000       8.00840000       3.01492000       5.54921000      -2.55787300       0.52513800       5.53372650      -2.63818340       0.45126619
Fe       2.03952000       7.84431000       6.63062000      -4.28706100       1.82495200      -1.68802900      -4.03713377       2.02716740      -1.69083215
Fe       3.34318000       0.11090000       2.96052000      -0.46571400      -0.35056300       0.37864800      -0.46862668      -0.18658981       0.49560549
Fe       3.26317000       2.11539000       1.48699000      -3.47884800      -0.03222100       0.61542300      -3.32746991      -0.28622770       0.22640422
Fe       4.14313000       2.75755000       3.31065000      -0.71378000      -2.73118300       1.93004800      -0.67154476      -2.50162997       1.93116999
Fe       2.55051000       2.67374000       7.19710000      -2.55215900      -0.93589000       1.77261600      -2.31521731      -1.04029995       1.71258003
Fe       3.61327000       2.86500000       5.46497000       1.55763200       0.20514300      -0.56676300       1.47233082       0.32251704      -0.26146792
Fe       2.62400000       4.72550000       1.39174000      -1.08585200      -1.19598700       0.59645400      -1.37642152      -0.90522221       0.73275086
Fe       2.20317000       5.21693000       3.87451000      -3.92870900      -4.38103900      -4.92199500      -3.88061546      -4.38741691      -5.03363539
Fe       3.93082000       4.37819000       8.08226000       1.07616800       0.44807800      -0.99700400       1.06694436       0.26995927      -1.10062951
Fe       2.44961000       7.01753000       1.08943000       0.32119000      -1.55635000       3.27006500       0.46917940      -1.64825560       3.31870209
Fe       3.02500000       6.15780000       5.08193000      -1.08486800       1.64126100       3.95415400      -0.47052338       1.59304881       3.92785756
Fe       5.77712000       0.44616000       0.16142000      -2.43333700       0.07175000       4.13474700      -2.40897172       0.43498422       4.19861951
Fe       5.66964000       0.14892000       2.95259000      -3.67617900       1.90971100       0.12919700      -3.69975360       1.66942569       0.28104835
Fe       5.39484000       2.66317000       1.55162000       4.08183700      -3.39937100       3.88213200       3.93886190      -3.77771637       4.09106338
Fe       5.91309000       3.40423000       8.31953000       8.90196200       5.48305700      -2.72562400       8.71163091       5.53078759      -2.78525806
Fe       4.96126000       4.63305000       3.41410000      -3.60269200      -2.00302700       2.25051900      -3.84307192      -2.23691810       2.38746074
Fe       5.11347000       6.81217000       1.78872000      -0.87770500       0.06714300      -1.61156800      -0.65349852       0.11219566      -1.59545161
Fe       5.00950000       6.45991000       8.24507000      -2.30619500      -0.19808200      -1.52355700      -2.23772766      -0.04722323      -1.64649122
Fe       4.64263000       7.71190000       5.75084000       2.50156800       4.23919200      -1.55456800       2.57834283       4.25258798      -1.68927401
Fe       7.32285000       0.33022000       5.03535000      -0.99210900      -0.59745100       4.73628300      -1.04235552      -0.39004914       4.73954244
Fe       6.75330000       1.32958000       7.05071000       0.53851300       2.01290400       0.36400700       0.46163835       1.87888569       0.35760126
Fe       6.82686000       2.53028000       3.66692000      -0.08907100      -0.12987400      -0.26318300       0.04277058      -0.20340666      -0.24956559
Fe       6.83617000       5.56618000       0.59386000       1.74434500       1.47371700      -3.32847200       1.82515183       1.88435187      -3.42358272
Fe       8.27091000       4.29855000       2.87718000       3.23308900       0.33980500       1.37352500       3.13983333       0.20071963       1.39748581
Fe       6.58774000       4.90718000       4.97515000      -1.87594500       0.58060600      -0.05143700      -2.07685829       0.50514639      -0.65123799
Fe       6.86773000       6.79187000       3.27473000       1.52763600      -2.76254700       0.67579100       1.46505984      -2.45295248       0.34661245
Fe       8.09083000       8.29691000       0.84396000      -4.18921500      -1.95965200       9.56442300      -4.33047917      -2.31523301       9.53249065
Fe       6.62133000       7.67903000       7.47205000      -3.65417600       1.51975600      -3.32990400      -3.95081605       1.32756999      -3.46672116
B        3.45077000       6.81738000       6.75435000       2.04131500      -2.79808300       3.80923700       1.87647425      -2.77175060       3.97789658
B        4.67436000       1.10514000       4.73414000       0.75036200       0.95391600      -0.52852700       0.82978035       0.87271162      -0.40571122
B        6.18153000       2.20088000       5.47737000      -4.49435700      -3.20609500      -2.27763700      -4.67885135      -3.14585531      -2.37969053
B        5.08133000       4.10197000       6.35983000       0.35152900       0.25548900      -0.65354500       0.54858068       0.37422591      -0.62824451
B        4.48663000       4.29393000       1.40792000      -0.27448100       1.04603100       0.21283300      -0.19031129       1.19673861       0.24465375
B        4.96286000       5.88068000       6.14703000       0.60492000      -1.85032800       0.29314600       0.53303701      -1.92750820       0.17118128
B        8.17242000       5.65216000       5.55863000       1.00443800       0.65677900      -0.69824300       0.99166411       0.80022734      -0.33002120
B        7.98743000       6.92663000       6.60530000       5.86774900       2.58695800      -4.05103700       5.80336106       2.35776087      -3.76205628
B        7.10769000       5.72812000       6.91109000      -2.33709700      -3.34606800       1.34633400      -2.13345922      -3.40836116       1.70912869
B        7.81665000       6.81498000       8.33858000       5.04350100      -2.41043400       0.97359300       5.14353641      -2.67657707       0.57990941
Si       0.06983000       0.14925000       7.74742000       4.12649000       2.60901100      -8.87608100       4.07088301       2.60352500      -8.72092496
Si       1.93337000       2.41223000       3.74634000      10.14534600       2.98113100     -12.18526000      10.21630492       3.07529360     -11.99894760
Si       0.75978000       6.02813000       1.69309000      -4.13401100      -0.74920300       1.02787300      -4.14122142      -0.82909105       0.97775586
Si       2.22023000       5.10313000       7.16329000      -1.58663400       1.19675500      -1.89967800      -1.64068485       1.14486166      -1.92869889
Si       3.27754000       8.17117000       8.35443000       4.04667900       4.58101600      -2.24829100       3.93578723       4.59886187      -2.41321537
Si       4.48145000       2.18337000       8.34202000      -5.72220500      -5.96162700      -4.99603400      -5.54635152      -5.97230697      -5.11562503
Si       6.36439000       4.54151000       2.12641000       2.28764700      -2.33178900       1.39384200       2.50215781      -2.11258653       1.35606052
Si       4.52267000       6.51460000       3.75633000       0.42177200       5.22743800       1.25328700       0.12095066       5.31684877       1.33611541
Si       7.68278000       0.22257000       3.11016000      -0.17295300       4.89916800      -3.86478000      -0.26811142       4.81191305      -3.95395778
Si       7.35363000       3.38410000       6.13231000       4.40786200       1.27045000       2.62604800       4.35036912       1.43959139       2.93155321
54
Lattice="8.579999685 0.0 0.0 0.0 8.579999685 0.0 0.0 0.0 8.5799996" Properties=species:S:1:pos:R:3:REF_forces:R:3:MACE_forces:R:3 config_type=Fe34B10Si10 REF_energy=-354.71875992 MACE_energy=-355.3222698807182 pbc="T T T"
Fe       0.43313000       1.19321000       2.96848000       1.47291300       2.99028000       0.61180900       1.49772234       2.96197181       0.31878330
Fe       0.91365000       1.12516000       8.09995000       2.76260400      -2.00335600       1.20968300       2.42272227      -2.03486241       1.08325050
Fe       1.17142000       2.67870000       5.23446000      -1.90323000       6.04651700       0.58026800      -1.76623942       6.09629938       0.44113147
Fe       0.60772000       3.85484000       0.87278000       2.66909500       4.89444800       4.53699300       2.52570432       4.94658041       4.16450070
Fe       1.41565000       3.44858000       3.01161000      -0.29549500       2.03729500      -0.74017400      -0.09857406       1.91445421      -0.69101999
Fe       0.04226000       2.91249000       8.09734000      -3.39897200      -2.84207300      -2.69442200      -2.78324981      -2.82703055      -2.30839043
Fe       1.33282000       7.09057000       5.22634000      -0.45239700      -1.35392500       0.92503500      -0.22434554      -1.51692204       0.96771019
Fe       2.06045000       7.92051000       0.98063000      -3.11321000      -0.30108300      -2.49280600      -3.10438978      -0.40446795      -2.37378389
Fe       2.03627000       8.24295000       3.50701000      -1.42216600       4.38122900       0.88517600      -1.45779194       4.13690734       0.67009652
Fe       0.01253000       8.02686000       7.00667000       2.58679700       0.98610200     -11.80201700       2.44356445       0.93138407     -11.87976796
Fe       3.00353000       0.57289000       6.13981000      -1.03922300       0.18357300       0.93137300      -0.82557975       0.11262822       1.01104290
Fe       3.69949000       2.65196000       7.51811000       2.76433000      -4.34399200      -3.80269000       2.59250716      -4.11881322      -3.68900850
Fe       2.94478000       6.44154000       3.03987000       7.21319500      -3.66655800      -1.17614100       7.04751191      -3.47332621      -1.01153207
Fe       2.94309000       5.75189000       6.64956000      -6.24071800      -0.74678300       3.86021800      -6.50528141      -0.64973907       3.84014428
Fe       3.71160000       8.39321000       1.86324000       2.24845700      -0.43546600       0.28887200       2.17782017      -0.17391196       0.67513962
Fe       4.07810000       8.43915000       4.32840000       2.88035800       1.28304800      -0.49181300       2.86552920       1.37531025      -0.77172272
Fe       5.57499000       0.73262000       6.31633000      -3.12774100      -1.68249800      -0.98058200      -2.83794753      -1.66401691      -0.88256888
Fe       4.70712000       1.94493000       1.65492000      -2.04675700       4.97917500      -3.67899600      -2.11402427       4.75728674      -3.51424311
Fe       4.73401000       4.18392000       1.24748000       0.71501700       1.80608500      -0.06999200       0.69669918       2.02035150      -0.11050433
Fe       4.56687000       4.22266000       4.39618000       0.73801700       3.32591500      -2.10569900       0.47766102       3.15165899      -2.19105631
Fe       4.51224000       4.61167000       7.05684000       2.53211900      -0.41024200       0.53825400       2.98685740      -0.75547057       0.49286744
Fe       6.32808000       6.81945000       4.24288000      -3.20445400      -0.33519400      -1.28892300      -2.81671329      -0.25339337      -1.12057559
Fe       6.22240000       7.17309000       0.16230000      -3.30904600      -2.75215800       1.90373500      -3.48734971      -3.06723521       2.09210323
Fe       4.54224000       7.44382000       7.03838000       0.17895600      -5.02037800      -8.74618400       0.28057531      -5.24909690      -8.95376068
Fe       4.73272000       8.55832000       8.35561000      -0.10588400       8.96287400       6.54083400      -0.17793665       9.50265442       6.22640075
Fe       7.67285000       2.82429000       2.17742000      -2.12886900      -0.76272600      -2.06587500      -2.06862522      -0.80639882      -1.98700490
Fe       6.74071000       1.77406000       4.33655000       0.47479500       0.50025500      -0.42349800       0.08072790       0.46874231      -0.49180664
Fe       7.16362000       1.61896000       6.68131000       5.11373900       1.83737400       0.70818800       4.78691920       1.69403861       0.63384461
Fe       6.73653000       4.13840000       7.84564000       0.19062300       0.32905600       3.59274800       0.09766059       0.50690689       3.64145685
Fe       6.61248000       5.35948000       2.44590000       0.96755600      -0.77403900      -0.47053600       0.84483239      -0.68624496      -0.51279753
Fe       8.39074000       4.95678000       4.82580000       0.50677700       3.21370700       1.22596300       0.58247944       3.11036261       1.10403210
Fe       6.62275000       6.29700000       6.29237000       0.91106900      -0.58785400       1.74696000       0.79033250      -0.46559498       1.60909249
Fe       8.00875000       8.14674000       2.12563000      -1.25903800      -1.94608200      -3.37077000      -0.89227599      -1.94320439      -3.40740615
Fe       7.96861000       8.10559000       4.08816000       1.24434400       0.03207600       4.40361200       0.69700794      -0.02558382       4.51209416
B        3.14587000       1.61638000       2.59818000      -3.96044800      -1.57388800      -2.24367700      -3.97459773      -1.48512443      -1.99888003
B        4.07212000       1.93087000       3.78701000       0.55534200       0.12762300      -3.25123200       0.43243999       0.09925763      -3.23555729
B        2.24412000       1.90783000       4.05913000      -1.80380000      -9.70850100      -5.48536600      -1.83885668      -9.90852122      -5.58006811
B        2.90130000       3.06657000       4.45062000       2.48509300       7.60479000      -1.50334300       2.91671910       7.33670392      -1.48017157
B        2.82587000       3.80138000       5.80651000       0.21675600       2.27927400       3.92227300       0.34649621       2.13005435       3.83654378
B        2.60929000       5.04297000       1.66311000       0.12617300      -0.77075900      -0.46531300      -0.07280263      -0.75040863      -0.36060540
B        2.47198000       4.95014000       4.32601000      -0.76752800      -1.31946700       0.35153300      -0.81014239      -1.22127582       0.30489533
B        2.73354000       7.81887000       7.66829000      -1.47869400      -0.15377200       0.00458000      -1.54017960      -0.18082642       0.17587836
B        5.68071000       2.28134000       7.79544000      -0.95924500       0.41857400       1.11780500      -0.92259988       0.34532899       1.06598060
B        7.77536000       3.70665000       3.76574000      -0.44877700      -1.48394500      -0.38974400      -0.55151072      -1.40799274      -0.03105729
Si       0.79518000       0.92195000       5.77957000      -1.66645900      -4.94136200      -1.10925300      -1.61957253      -5.12297070      -0.94523547
Si       0.88055000       4.20706000       6.73551000       1.15626000       3.58432200      -0.32349000       1.09948898       3.78571435      -0.19222339
Si       1.15025000       6.44729000       2.43826000      -7.77651300      -1.83655100      -1.54918700      -7.91689543      -1.74425810      -1.72880950
Si       2.82820000       3.29548000       0.50208000      -4.05499500       1.58525200       5.32597100      -4.13513761       1.49160051       5.27711920
Si       4.14031000       6.38272000       0.30005000      -2.16949800      -2.44928300       2.57761000      -2.20182031      -2.51356938       2.57245028
Si       3.68345000       6.43010000       5.01209000       3.98893100       0.98565200      -2.13453700       3.85790087       1.18893057      -2.07217360
Si       5.73751000       0.59059000       2.53265000       5.08228400      -4.90021500       2.23852200       5.18153844      -4.93261866       2.49632026
Si       4.51163000       2.47994000       5.36819000       2.60737700      -2.86786400       7.12589500       2.76509234      -2.66753118       6.97485726
Si       6.43436000       3.75222000       5.86206000       1.38008400       0.66155200      -3.64612400       1.58951227       0.80223227      -3.77456759
Si       8.06432000       7.52318000       8.55473000       2.36409700      -3.06603600      11.34847700       2.66041699      -2.81694976      11.10856270
18
Lattice="6.5 0.0 0.0 0.0 6.5 0.0 0.0 0.0 6.5" Properties=species:S:1:pos:R:3:REF_forces:R:3:MACE_forces:R:3 config_type=Fe12B3Si3 REF_energy=-113.87843945 MACE_energy=-113.05450884385832 pbc="T T T"
Fe       5.40234000       5.43492000       1.53729000      -1.39532100       2.04028400       0.71142300      -1.15711024       1.98212731       0.70106979
Fe       2.09750000       2.10361000       0.54730000       2.35673700      -0.33103000       1.27254800       2.52728663      -0.09943178       1.09436244
Fe       2.84360000       1.73250000       3.81271000       2.28004000      -1.18251600      -0.27344700       2.19762245      -1.04266884      -0.15406225
Fe       0.77541000       4.93717000       1.04317000       1.56096300      -3.83372900       1.76362000       1.43148092      -3.61735877       1.48890596
Fe       0.07665000       3.70431000       3.74351000      -0.75952900      -0.39175400      -2.23189700      -1.00636097      -0.41696507      -2.29595477
Fe       4.77171000       3.58949000       4.78220000      -1.99219600      -4.62409700       0.48420500      -1.80334307      -4.61315029       0.42600553
Fe       4.12430000       1.49867000       1.46476000       0.29771700      -2.38794700       0.28396300       0.31542078      -2.66464818       0.12396018
Fe       0.95387000       5.17746000       5.28728000      -0.57085000      -0.50160400      -1.80733600      -0.94467278      -0.69748299      -1.30107175
Fe       1.93602000       3.09888000       2.36598000      -0.08855100       0.43128300      -0.27209000      -0.13585365       0.61025534      -0.40189008
Fe       5.69037000       1.28357000       4.20026000      -0.40866000      -0.49067900       0.18976600      -0.66883232      -0.26962725       0.17241811
Fe       1.94321000       2.86141000       5.39871000      -0.55906500       0.73218900      -1.80086600      -0.61629290       0.80614920      -1.84639700
Fe       4.33122000       5.38124000       5.25469000      -0.73272900       4.56545400       1.52017900      -0.71053556       4.41662532       1.53548760
B        0.37598000       1.64060000       1.21420000      -3.21263000       2.85095800       0.76078000      -3.09637834       2.70643226       0.91981097
B        1.88110000       4.04794000       3.96741000       2.48956600       2.45119300      -0.32261600       2.68829414       2.29630291      -0.38756773
B        3.63878000       0.94242000       5.41981000      -0.01444500       0.67937600       0.95779200       0.15709053       0.81991437       1.05612059
Si       1.19380000       0.26963000       0.19686000       0.54051800       0.24528300      -1.93219100       0.68231691       0.02434055      -1.91821799
Si       4.57825000       3.47658000       1.16117000       0.15934200       1.26766700      -0.81102600       0.19809152       1.42675033      -0.71330047
Si       1.09558000       0.76720000       2.75124000       0.04909300      -1.52033200       1.50719200      -0.05822406      -1.66756442       1.50032086
54
Lattice="8.579999685 0.0 0.0 0.0 8.579999685 0.0 0.0 0.0 8.5799996" Properties=species:S:1:pos:R:3:REF_forces:R:3:MACE_forces:R:3 config_type=Fe34B10Si10 REF_energy=-356.0869274 MACE_energy=-356.8114335802462 pbc="T T T"
Fe       0.92877000       1.08311000       2.12831000      -0.53214900      -1.15432400       0.53007800      -0.69356077      -1.25004322       0.39365661
Fe       1.12794000       0.45096000       7.37327000      -2.86345100       2.18226700       1.45805300      -2.86740536       2.02121314       1.46400165
Fe       0.91289000       3.61082000       1.96264000      -1.66570100       0.50807500      -4.76654600      -1.66101714       0.26004420      -4.75591772
Fe       0.97242000       3.25012000       3.83975000      -0.85629000      -1.23507100      -0.91491200      -1.08551585      -1.18364381      -0.41731302
Fe       1.43574000       3.84332000       5.84621000      -1.94378300      -0.72872400       4.94145300      -2.07570446      -0.52163017       4.71406945
Fe       0.45897000       5.99881000       1.32384000       1.86679900       1.45939200      -0.33976700       1.64187513       1.57943859      -0.19811560
Fe       0.05714000       6.25044000       6.01250000       0.66851500      -0.88142700       1.67028200       0.74548371      -0.74374864       1.80533891
Fe       1.87526000       7.05991000       7.27744000      -5.90957000       6.81146600       5.95768600      -5.77238411       7.19773313       5.93488897
Fe       4.21220000       0.80536000       3.81626000       0.44958900      -1.97725700       0.54591300       0.57464053      -1.91199871       0.43477225
Fe       2.64196000       0.75311000       5.88605000       0.80305000      -0.92688600      -1.50973400       0.62093562      -1.09677074      -1.56679084
Fe       2.51735000       4.27963000       7.86001000      -0.17185400       2.88247300       0.00075600       0.00182965       2.97484641       0.38140096
Fe       2.46175000       4.76211000       4.38544000       2.27245000       6.36429500      -0.60000700       2.25686751       6.39346998      -0.55015736
Fe       3.99132000       4.46692000       6.09268000      -0.21521200      -1.96607600      -0.25853400      -0.23523890      -2.14068044      -0.16043415
Fe       4.03283000       6.20484000       2.50717000       0.32509400      -1.83048700       1.07686200       0.45129665      -1.71664305       1.17496857
Fe       2.62183000       8.12097000       1.25125000      -5.45108600      -1.04608100      -0.88869000      -5.57846001      -1.02577189      -0.55554376
Fe       2.34208000       7.49949000       3.33705000      -1.45221900       0.10179900       1.96325000      -1.29604034       0.22930248       1.58499715
Fe       4.67554000       0.98699000       8.35162000       1.97529500       0.95938300       0.07305200       1.78858457       0.79478736       0.42996289
Fe       4.68615000       2.28426000       1.60336000       6.03713100       4.39249100       1.56082500       6.19664830       4.33491173       1.16185857
Fe       4.95897000       4.28949000       0.91503000       1.24258400       3.77490300      -1.07876200       0.64486813       3.42905140      -1.24166783
Fe       5.62605000       3.84953000       3.25301000      -4.56775200       3.43217100       2.09526400      -4.63270431       3.49161828       1.94435420
Fe       5.63153000       5.70233000       4.67966000       0.04558900       0.36352900      -0.74034800       0.09859656      -0.07537470      -0.61367246
Fe       5.00954000       6.14620000       6.89198000       4.51113600      -2.60361300       1.43664400       4.52100499      -2.43128947       1.37045512
Fe       5.34723000       7.32984000       0.56425000       3.41130600      -7.55812200      -7.44238600       3.31753505      -7.05297529      -7.27402092
Fe       4.57141000       8.20633000       1.67615000      -2.51651100       6.57056000       9.11650700      -2.57937643       6.19116041       8.70909528
Fe       5.67084000       7.83697000       6.02451000      -0.02983000       3.57151200       0.33120700      -0.08907815       3.74109438       0.40291990
Fe       7.65837000       1.05332000       0.64336000       1.95813700       2.93603900      -3.62028800       1.89038598       2.97508830      -3.49740180
Fe       7.23579000       1.49494000       3.62009000       0.88838800      -1.50203300       3.00240400       0.98205409      -1.61352946       3.04544932
Fe       6.96409000       1.59543000       6.70415000       0.40175100      -2.57633900      -0.54943900       0.53625468      -2.53337901      -0.51743257
Fe       6.97946000       3.05325000       2.27831000       3.01329100      -2.85779700      -7.80747400       2.49444467      -2.99778116      -7.20699922
Fe       7.05854000       3.62734000       7.13255000       0.94483300       2.42104600       2.56329500       1.05859319       2.45100481       2.50049054
Fe       7.47490000       4.49325000       0.92243000      -3.13561000       0.06366500       0.11142200      -2.92560026       0.41961209      -0.36217989
Fe       7.76499000       5.40883000       4.05655000       3.42051700      -2.49950500       1.10150300       3.49548138      -2.67990261       1.16113357
Fe       6.91686000       6.16423000       2.38917000      -4.34160700       0.52717700      -3.24358900      -4.29621752       0.65284599      -3.17788038
Fe       7.31773000       7.39473000       4.73130000      -1.41907300       3.06948200       1.38572900      -1.39435558       3.08402041       1.30609208
B        1.63947000       5.44017000       2.85377000      -1.37965300       1.67099600      -0.34434500      -1.43215787       1.76686945      -0.58792577
B        3.47444000       1.29905000       1.69513000      -6.04542900      -7.46227000      -1.52467000      -5.90390763      -7.26858223      -1.19316434
B        2.31673000       1.42955000       3.77944000      -1.85652800      -2.14982900       3.21956500      -1.77028642      -1.96787393       3.50382435
B        3.17088000       0.01260000       8.16689000      -2.14308300      -0.12737100      -3.63430700      -2.10360500       0.07374501      -3.58718936
B        2.48887000       2.23189000       2.44876000      -1.30373000       3.96631200      -0.94871100      -0.86532422       3.90211412      -1.24760177
B        3.55016000       3.21990000       0.17024000       2.13469500      -3.52588700       0.23974700       2.11132057      -3.42642395       0.17502406
B        3.12966000       3.07291000       4.24572000      -6.99085300       0.34377600      -0.16579100      -7.16629357       0.02301862      -0.34977234
B        2.38358000       5.95301000       6.34325000       2.25901800      -8.76611800      -6.31465800       2.26099567      -9.20231794      -6.52628647
B        4.46260000       2.62992000       4.23823000       7.08507900      -1.75449200       0.40993300       7.22996772      -1.70680273       0.46791012
B        7.51183000       3.59374000       3.85724000       1.49621300      -1.20378300       3.39561400       1.51135769      -1.11228950       3.33003051
Si       0.50050000       1.66927000       5.10425000      -1.02554400      -2.67263500       2.61432900      -0.86568662      -2.94596530       2.50103722
Si       0.41923000       4.50138000       8.15701000       0.82744200      -0.47721100      -2.57541600       1.07130701      -0.50399138      -2.80858406
Si       2.90131000       4.25049000       1.93860000       2.71957100       0.04497600      -0.88170100       2.94713487      -0.06041917      -1.13533215
Si       3.74353000       6.85388000       5.19884000      -1.20766000       1.80214700      -2.20114300      -1.10216921       1.93777715      -2.19391670
Si       3.54209000       6.47938000       8.21357000      -0.45014500      -1.75854100       4.24377300      -0.58004397      -2.00054944       4.43148906
Si       4.55252000       1.74669000       6.40118000       0.28733400       0.20348600      -1.69136000       0.28136931       0.18217687      -1.72992256
Si       5.87020000       3.30923000       5.41310000       1.93974000       0.55942400      -1.14043100       1.56123383       0.71871086      -1.17688737
Si       6.68392000       0.09389000       2.07850000      -2.78148600      -1.30329400       2.70552900      -2.46105641      -1.20835083       2.84344528
Si       7.30980000       7.36953000       0.08595000       4.18267400      -0.22507900      -1.67891000       4.12648668      -0.48051082      -1.67029229
Si       8.41387000       7.50606000       2.97540000       5.08859000       1.78741200      -0.88875800       5.01463638       2.03358442      -0.87026390
54
Lattice="8.579999685 0.0 0.0 0.0 8.579999685 0.0 0.0 0.0 8.5799996" Properties=species:S:1:pos:R:3:REF_forces:R:3:MACE_forces:R:3 config_type=Fe34B10Si10 REF_energy=-359.84864784 MACE_energy=-360.2977991843016 pbc="T T T"
Fe       0.39531000       2.37288000       0.87042000       3.27925500       2.43832800      -1.60261100       3.22989740       2.57333525      -1.73107437
Fe       0.75383000       1.65209000       3.11094000       1.30783500      -0.34615400      -0.09267000       1.25858086      -0.77833095       0.23824367
Fe       1.33201000       3.79282000       7.26231000      -2.40668100      -1.18131200       0.32245500      -2.55062771      -1.05866610       0.17100274
Fe       0.64436000       4.41396000       2.97573000       2.42004200      -2.26182600       0.38963900       2.47902934      -2.04310143       0.21730098
Fe       0.14751000       6.42079000       3.51005000      -3.07002100       1.32407200      -2.30638400      -3.11579675       1.37992490      -2.54808830