54
Lattice="8.579999685 0.0 0.0 0.0 8.579999685 0.0 0.0 0.0 8.5799996" Properties=species:S:1:pos:R:3:REF_forces:R:3:MACE_forces:R:3 config_type=Fe34B10Si10 REF_energy=-352.89092233 MACE_energy=-354.2784512778751 pbc="T T T"
Fe       1.46495000       0.71583000       1.12880000       3.73230100      -3.41607500      -3.76209700       3.57795839      -3.07604063      -3.18092896
Fe       0.56244000       2.07917000       1.96452000      -3.31290700       4.06628900       2.54508600      -3.56756464       3.88936452       1.92710758
Fe       0.86636000       2.12990000       5.00906000     -10.85567700      -2.87102900      12.20968700     -10.41635937      -2.62842737      12.13962947
Fe       0.24697000       2.61233000       7.83061000      -0.37811800      -2.03816900      -0.08744800      -0.37678666      -2.55470524       0.24904182
Fe       0.35437000       4.66395000       8.16447000      -1.30300600       1.62250000       0.84662400      -1.44639737       2.25212954       0.96391312
Fe       0.83543000       8.00840000       3.01492000       5.54921000      -2.55787300       0.52513800       5.60944021      -2.85998965       1.07935233
Fe       2.03952000       7.84431000       6.63062000      -4.28706100       1.82495200      -1.68802900      -4.46019758       2.22456009      -1.74007844
Fe       3.34318000       0.11090000       2.96052000      -0.46571400      -0.35056300       0.37864800      -0.53304468      -0.13725966       0.72589734
Fe       3.26317000       2.11539000       1.48699000      -3.47884800      -0.03222100       0.61542300      -3.26054259       0.00385992      -0.37082149
Fe       4.14313000       2.75755000       3.31065000      -0.71378000      -2.73118300       1.93004800      -0.17759226      -2.06491474       1.68637485
Fe       2.55051000       2.67374000       7.19710000      -2.55215900      -0.93589000       1.77261600      -2.35456550      -0.96595651       1.84947096
Fe       3.61327000       2.86500000       5.46497000       1.55763200       0.20514300      -0.56676300       1.50504175       0.47906970      -0.85841715
Fe       2.62400000       4.72550000       1.39174000      -1.08585200      -1.19598700       0.59645400      -1.04231359      -1.17054298       0.62403651
Fe       2.20317000       5.21693000       3.87451000      -3.92870900      -4.38103900      -4.92199500      -3.79637147      -4.54596094      -5.60630195
Fe       3.93082000       4.37819000       8.08226000       1.07616800       0.44807800      -0.99700400       1.16520505       0.41182114      -0.31525706
Fe       2.44961000       7.01753000       1.08943000       0.32119000      -1.55635000       3.27006500       0.51607940      -1.27045510       2.70937591
Fe       3.02500000       6.15780000       5.08193000      -1.08486800       1.64126100       3.95415400      -0.09877027       1.76355947       4.63469813
Fe       5.77712000       0.44616000       0.16142000      -2.43333700       0.07175000       4.13474700      -2.00809658       0.23083959       4.21017084
Fe       5.66964000       0.14892000       2.95259000      -3.67617900       1.90971100       0.12919700      -3.61072880       1.99040963       0.06083984
Fe       5.39484000       2.66317000       1.55162000       4.08183700      -3.39937100       3.88213200       3.80617253      -3.44233551       3.98196289
Fe       5.91309000       3.40423000       8.31953000       8.90196200       5.48305700      -2.72562400       8.11593305       5.48092439      -3.00186396
Fe       4.96126000       4.63305000       3.41410000      -3.60269200      -2.00302700       2.25051900      -3.73308800      -1.96637184       3.32870156
Fe       5.11347000       6.81217000       1.78872000      -0.87770500       0.06714300      -1.61156800      -0.80034505       0.12920186      -1.93205754
Fe       5.00950000       6.45991000       8.24507000      -2.30619500      -0.19808200      -1.52355700      -2.28686877      -0.47920932      -1.93629398
Fe       4.64263000       7.71190000       5.75084000       2.50156800       4.23919200      -1.55456800       2.75561082       4.45349868      -1.45033781
Fe       7.32285000       0.33022000       5.03535000      -0.99210900      -0.59745100       4.73628300      -0.67694319      -0.44196427       4.43477239
Fe       6.75330000       1.32958000       7.05071000       0.53851300       2.01290400       0.36400700       0.48847836       1.29940893       0.47649031
Fe       6.82686000       2.53028000       3.66692000      -0.08907100      -0.12987400      -0.26318300       0.26114696      -0.12795144      -0.56466795
Fe       6.83617000       5.56618000       0.59386000       1.74434500       1.47371700      -3.32847200       1.42101386       0.95891483      -3.23833556
Fe       8.27091000       4.29855000       2.87718000       3.23308900       0.33980500       1.37352500       3.04456916      -0.01215194       1.29453692
Fe       6.58774000       4.90718000       4.97515000      -1.87594500       0.58060600      -0.05143700      -2.38098702       1.47467007      -1.42866266
Fe       6.86773000       6.79187000       3.27473000       1.52763600      -2.76254700       0.67579100       1.40768567      -2.51503985       0.57829869
Fe       8.09083000       8.29691000       0.84396000      -4.18921500      -1.95965200       9.56442300      -3.75078269      -1.39523980       9.91522684
Fe       6.62133000       7.67903000       7.47205000      -3.65417600       1.51975600      -3.32990400      -4.58583894       1.51695908      -4.00499382
B        3.45077000       6.81738000       6.75435000       2.04131500      -2.79808300       3.80923700       2.23411267      -3.18797939       3.82373787
B        4.67436000       1.10514000       4.73414000       0.75036200       0.95391600      -0.52852700       0.23003237       0.09739841      -0.32973283
B        6.18153000       2.20088000       5.47737000      -4.49435700      -3.20609500      -2.27763700      -4.37666871      -2.67315907      -2.33424627
B        5.08133000       4.10197000       6.35983000       0.35152900       0.25548900      -0.65354500       0.38614719       0.08300587      -0.18219359
B        4.48663000       4.29393000       1.40792000      -0.27448100       1.04603100       0.21283300      -0.46736999       1.04274635      -0.00423156
B        4.96286000       5.88068000       6.14703000       0.60492000      -1.85032800       0.29314600       0.12186070      -1.42427659       0.54802804
B        8.17242000       5.65216000       5.55863000       1.00443800       0.65677900      -0.69824300       2.41840309      -0.08949034      -0.68745063
B        7.98743000       6.92663000       6.60530000       5.86774900       2.58695800      -4.05103700       5.11676204       2.54870979      -2.87674619
B        7.10769000       5.72812000       6.91109000      -2.33709700      -3.34606800       1.34633400      -2.45111655      -3.25473480       1.77443733
B        7.81665000       6.81498000       8.33858000       5.04350100      -2.41043400       0.97359300       5.04248125      -3.06432036       0.37807528
Si       0.06983000       0.14925000       7.74742000       4.12649000       2.60901100      -8.87608100       4.24250659       2.89777920      -8.85822411
Si       1.93337000       2.41223000       3.74634000      10.14534600       2.98113100     -12.18526000       9.71024276       2.74873223     -11.40774300
Si       0.75978000       6.02813000       1.69309000      -4.13401100      -0.74920300       1.02787300      -3.50349790      -1.14777891       0.77130509
Si       2.22023000       5.10313000       7.16329000      -1.58663400       1.19675500      -1.89967800      -1.53204060       1.21937927      -1.83366291
Si       3.27754000       8.17117000       8.35443000       4.04667900       4.58101600      -2.24829100       3.66681483       4.53324530      -1.77602627
Si       4.48145000       2.18337000       8.34202000      -5.72220500      -5.96162700      -4.99603400      -5.75914963      -5.91763650      -4.84891968
Si       6.36439000       4.54151000       2.12641000       2.28764700      -2.33178900       1.39384200       2.29968394      -2.10329216       0.91089248
Si       4.52267000       6.51460000       3.75633000       0.42177200       5.22743800       1.25328700       0.41665199       5.01241320       0.72864424
Si       7.68278000       0.22257000       3.11016000      -0.17295300       4.89916800      -3.86478000      -0.37740739       4.42982558      -3.94617357
Si       7.35363000       3.38410000       6.13231000       4.40786200       1.27045000       2.62604800       4.27140116       1.34475827       2.90935032
54
Lattice="8.579999685 0.0 0.0 0.0 8.579999685 0.0 0.0 0.0 8.5799996" Properties=species:S:1:pos:R:3:REF_forces:R:3:MACE_forces:R:3 config_type=Fe34B10Si10 REF_energy=-354.71875992 MACE_energy=-354.3456231632547 pbc="T T T"
Fe       0.43313000       1.19321000       2.96848000       1.47291300       2.99028000       0.61180900       1.91143125       2.59644336       0.59085383
Fe       0.91365000       1.12516000       8.09995000       2.76260400      -2.00335600       1.20968300       2.70632162      -1.77847140       1.52125683
Fe       1.17142000       2.67870000       5.23446000      -1.90323000       6.04651700       0.58026800      -2.84762263       6.60640817       0.51870618
Fe       0.60772000       3.85484000       0.87278000       2.66909500       4.89444800       4.53699300       2.56322960       5.43208718       4.32005478
Fe       1.41565000       3.44858000       3.01161000      -0.29549500       2.03729500      -0.74017400       0.34476049       1.73132889      -0.59777710
Fe       0.04226000       2.91249000       8.09734000      -3.39897200      -2.84207300      -2.69442200      -3.86624516      -3.34568060      -3.31534138
Fe       1.33282000       7.09057000       5.22634000      -0.45239700      -1.35392500       0.92503500       0.03129496      -1.35121071       0.72342057
Fe       2.06045000       7.92051000       0.98063000      -3.11321000      -0.30108300      -2.49280600      -3.70705819      -0.42212203      -2.64694139
Fe       2.03627000       8.24295000       3.50701000      -1.42216600       4.38122900       0.88517600      -1.63979230       4.02943038       0.57348917
Fe       0.01253000       8.02686000       7.00667000       2.58679700       0.98610200     -11.80201700       2.11708611       0.55305692     -11.77129067
Fe       3.00353000       0.57289000       6.13981000      -1.03922300       0.18357300       0.93137300      -0.57742874       0.57218337       0.74052000
Fe       3.69949000       2.65196000       7.51811000       2.76433000      -4.34399200      -3.80269000       1.73480594      -3.95705002      -3.97091724
Fe       2.94478000       6.44154000       3.03987000       7.21319500      -3.66655800      -1.17614100       7.39045790      -2.84750982      -0.49508287
Fe       2.94309000       5.75189000       6.64956000      -6.24071800      -0.74678300       3.86021800      -6.01565756      -0.77625927       4.55653275
Fe       3.71160000       8.39321000       1.86324000       2.24845700      -0.43546600       0.28887200       3.17545778      -0.12047273       1.03574688
Fe       4.07810000       8.43915000       4.32840000       2.88035800       1.28304800      -0.49181300       2.70388089       1.55375126      -0.69428369
Fe       5.57499000       0.73262000       6.31633000      -3.12774100      -1.68249800      -0.98058200      -2.87798192      -2.33376471      -1.58443707
Fe       4.70712000       1.94493000       1.65492000      -2.04675700       4.97917500      -3.67899600      -1.05146653       4.62854542      -4.07757784
Fe       4.73401000       4.18392000       1.24748000       0.71501700       1.80608500      -0.06999200       0.73876257       1.65978789       0.09618528
Fe       4.56687000       4.22266000       4.39618000       0.73801700       3.32591500      -2.10569900       0.30018686       4.31784700      -2.60830434
Fe       4.51224000       4.61167000       7.05684000       2.53211900      -0.41024200       0.53825400       2.82896128      -0.21224283       0.37296363
Fe       6.32808000       6.81945000       4.24288000      -3.20445400      -0.33519400      -1.28892300      -2.64476756      -0.46907417      -1.21318382
Fe       6.22240000       7.17309000       0.16230000      -3.30904600      -2.75215800       1.90373500      -3.03044918      -3.01970683       1.95729752
Fe       4.54224000       7.44382000       7.03838000       0.17895600      -5.02037800      -8.74618400       0.00544606      -5.00855844      -7.85210607
Fe       4.73272000       8.55832000       8.35561000      -0.10588400       8.96287400       6.54083400      -1.14526691       8.35966213       5.38418234
Fe       7.67285000       2.82429000       2.17742000      -2.12886900      -0.76272600      -2.06587500      -2.38741115      -0.86669703      -2.02246613
Fe       6.74071000       1.77406000       4.33655000       0.47479500       0.50025500      -0.42349800       0.06717234       0.63431433      -0.62141276
Fe       7.16362000       1.61896000       6.68131000       5.11373900       1.83737400       0.70818800       5.07045775       1.84515177       1.05585718
Fe       6.73653000       4.13840000       7.84564000       0.19062300       0.32905600       3.59274800       0.08594775       1.31737628       3.73245618
Fe       6.61248000       5.35948000       2.44590000       0.96755600      -0.77403900      -0.47053600       0.57404297      -0.59849028      -0.33100135
Fe       8.39074000       4.95678000       4.82580000       0.50677700       3.21370700       1.22596300       0.83108439       2.83722440       1.11142128
Fe       6.62275000       6.29700000       6.29237000       0.91106900      -0.58785400       1.74696000       0.65778901      -0.58214141       1.78404719
Fe       8.00875000       8.14674000       2.12563000      -1.25903800      -1.94608200      -3.37077000      -1.40922672      -1.57060750      -3.87292405
Fe       7.96861000       8.10559000       4.08816000       1.24434400       0.03207600       4.40361200       1.01476503       0.33900472       4.60258296
B        3.14587000       1.61638000       2.59818000      -3.96044800      -1.57388800      -2.24367700      -3.93306570      -0.94596364      -1.47167619
B        4.07212000       1.93087000       3.78701000       0.55534200       0.12762300      -3.25123200       1.07393066      -1.27929316      -3.63499826
B        2.24412000       1.90783000       4.05913000      -1.80380000      -9.70850100      -5.48536600      -2.61856634     -11.11619461      -4.94968751
B        2.90130000       3.06657000       4.45062000       2.48509300       7.60479000      -1.50334300       3.07564476       7.84058688      -1.66990875
B        2.82587000       3.80138000       5.80651000       0.21675600       2.27927400       3.92227300       0.66501571       2.73183474       3.48495629
B        2.60929000       5.04297000       1.66311000       0.12617300      -0.77075900      -0.46531300      -0.08223257      -0.81127167      -0.49147680
B        2.47198000       4.95014000       4.32601000      -0.76752800      -1.31946700       0.35153300      -0.78396494      -1.63698447       0.63177612
B        2.73354000       7.81887000       7.66829000      -1.47869400      -0.15377200       0.00458000      -0.93269577      -0.16305326       0.12027184
B        5.68071000       2.28134000       7.79544000      -0.95924500       0.41857400       1.11780500      -0.43309843      -0.05408686       0.93864895
B        7.77536000       3.70665000       3.76574000      -0.44877700      -1.48394500      -0.38974400      -0.71420305      -1.41304859      -0.22129130
Si       0.79518000       0.92195000       5.77957000      -1.66645900      -4.94136200      -1.10925300      -1.32234129      -4.81668419      -0.87428054
Si       0.88055000       4.20706000       6.73551000       1.15626000       3.58432200      -0.32349000       1.10647530       3.53502028       0.17962131
Si       1.15025000       6.44729000       2.43826000      -7.77651300      -1.83655100      -1.54918700      -8.01828261      -1.66613157      -1.97534755
Si       2.82820000       3.29548000       0.50208000      -4.05499500       1.58525200       5.32597100      -3.57246624       1.26671150       4.72556280
Si       4.14031000       6.38272000       0.30005000      -2.16949800      -2.44928300       2.57761000      -2.16130816      -2.19639810       2.08076408
Si       3.68345000       6.43010000       5.01209000       3.98893100       0.98565200      -2.13453700       3.83850058       1.24125502      -2.18656941
Si       5.73751000       0.59059000       2.53265000       5.08228400      -4.90021500       2.23852200       4.57831456      -4.54118659       2.84386225
Si       4.51163000       2.47994000       5.36819000       2.60737700      -2.86786400       7.12589500       2.75264758      -2.74909398       7.27588586
Si       6.43436000       3.75222000       5.86206000       1.38008400       0.66155200      -3.64612400       1.01651882       0.41545429      -3.25053020
Si       8.06432000       7.52318000       8.55473000       2.36409700      -3.06603600      11.34847700       2.81220916      -3.39501575      11.44189020
18
Lattice="6.5 0.0 0.0 0.0 6.5 0.0 0.0 0.0 6.5" Properties=species:S:1:pos:R:3:REF_forces:R:3:MACE_forces:R:3 config_type=Fe12B3Si3 REF_energy=-113.87843945 MACE_energy=-121.42133430955127 pbc="T T T"
Fe       5.40234000       5.43492000       1.53729000      -1.39532100       2.04028400       0.71142300      -2.57737923       2.64540602       1.14847576
Fe       2.09750000       2.10361000       0.54730000       2.35673700      -0.33103000       1.27254800       2.88154507      -0.61860203       2.70675727
Fe       2.84360000       1.73250000       3.81271000       2.28004000      -1.18251600      -0.27344700       2.27415531      -1.25943801      -0.46162961
Fe       0.77541000       4.93717000       1.04317000       1.56096300      -3.83372900       1.76362000       2.43112615      -3.93760028       1.61261249
Fe       0.07665000       3.70431000       3.74351000      -0.75952900      -0.39175400      -2.23189700      -1.09790075      -0.39082074      -2.17162936
Fe       4.77171000       3.58949000       4.78220000      -1.99219600      -4.62409700       0.48420500      -1.40148307      -4.38152956       0.37630770
Fe       4.12430000       1.49867000       1.46476000       0.29771700      -2.38794700       0.28396300       0.48005558      -3.57368414       0.87245122
Fe       0.95387000       5.17746000       5.28728000      -0.57085000      -0.50160400      -1.80733600      -0.60491313       0.09355092      -1.34790268
Fe       1.93602000       3.09888000       2.36598000      -0.08855100       0.43128300      -0.27209000      -0.21089603       1.03938214      -0.83772535
Fe       5.69037000       1.28357000       4.20026000      -0.40866000      -0.49067900       0.18976600      -0.63173290      -0.48800058       0.29636813
Fe       1.94321000       2.86141000       5.39871000      -0.55906500       0.73218900      -1.80086600      -0.96938445       1.92703074      -2.45852583
Fe       4.33122000       5.38124000       5.25469000      -0.73272900       4.56545400       1.52017900      -0.79017707       4.56069600       1.25160713
B        0.37598000       1.64060000       1.21420000      -3.21263000       2.85095800       0.76078000      -3.40155290       2.74478262       0.13415224
B        1.88110000       4.04794000       3.96741000       2.48956600       2.45119300      -0.32261600       2.64073462       2.17442863      -0.35776160
B        3.63878000       0.94242000       5.41981000      -0.01444500       0.67937600       0.95779200       0.45920069      -0.00324886       0.79647674
Si       1.19380000       0.26963000       0.19686000       0.54051800       0.24528300      -1.93219100       0.54543531      -0.25283309      -2.14752870
Si       4.57825000       3.47658000       1.16117000       0.15934200       1.26766700      -0.81102600      -0.18028061       1.45013104      -0.92518332
Si       1.09558000       0.76720000       2.75124000       0.04909300      -1.52033200       1.50719200       0.15344742      -1.72965081       1.51267779
54
Lattice="8.579999685 0.0 0.0 0.0 8.579999685 0.0 0.0 0.0 8.5799996" Properties=species:S:1:pos:R:3:REF_forces:R:3:MACE_forces:R:3 config_type=Fe34B10Si10 REF_energy=-356.0869274 MACE_energy=-356.50063269510537 pbc="T T T"
Fe       0.92877000       1.08311000       2.12831000      -0.53214900      -1.15432400       0.53007800      -0.47773251      -0.57747159       0.61417922
Fe       1.12794000       0.45096000       7.37327000      -2.86345100       2.18226700       1.45805300      -2.53924689       2.24429011       1.74217960
Fe       0.91289000       3.61082000       1.96264000      -1.66570100       0.50807500      -4.76654600      -2.43634300       0.04456511      -4.56195139
Fe       0.97242000       3.25012000       3.83975000      -0.85629000      -1.23507100      -0.91491200      -0.30279587      -0.70233134      -0.11914850
Fe       1.43574000       3.84332000       5.84621000      -1.94378300      -0.72872400       4.94145300      -1.72776029      -0.88001873       4.14472350
Fe       0.45897000       5.99881000       1.32384000       1.86679900       1.45939200      -0.33976700       2.10598970       1.86501299      -0.31282701
Fe       0.05714000       6.25044000       6.01250000       0.66851500      -0.88142700       1.67028200       1.22101820      -1.15596387       1.82006843
Fe       1.87526000       7.05991000       7.27744000      -5.90957000       6.81146600       5.95768600      -5.84993490       7.12635481       5.25769031
Fe       4.21220000       0.80536000       3.81626000       0.44958900      -1.97725700       0.54591300       0.37853616      -1.62181177      -0.10821747
Fe       2.64196000       0.75311000       5.88605000       0.80305000      -0.92688600      -1.50973400       0.45391934      -0.61066560      -1.52470537
Fe       2.51735000       4.27963000       7.86001000      -0.17185400       2.88247300       0.00075600      -0.48968417       2.43101561      -0.62861501
Fe       2.46175000       4.76211000       4.38544000       2.27245000       6.36429500      -0.60000700       2.21998590       5.47562665      -0.95988766
Fe       3.99132000       4.46692000       6.09268000      -0.21521200      -1.96607600      -0.25853400      -0.59856557      -2.11080066      -0.68606541
Fe       4.03283000       6.20484000       2.50717000       0.32509400      -1.83048700       1.07686200       0.55263712      -1.82362275       0.79767862
Fe       2.62183000       8.12097000       1.25125000      -5.45108600      -1.04608100      -0.88869000      -4.60459098      -1.30448976      -0.66462183
Fe       2.34208000       7.49949000       3.33705000      -1.45221900       0.10179900       1.96325000      -1.36033067       0.24437713       1.92082041
Fe       4.67554000       0.98699000       8.35162000       1.97529500       0.95938300       0.07305200       2.36091710       1.03604492       0.53065744
Fe       4.68615000       2.28426000       1.60336000       6.03713100       4.39249100       1.56082500       7.28869050       4.66158580       1.37557120
Fe       4.95897000       4.28949000       0.91503000       1.24258400       3.77490300      -1.07876200       1.73932501       3.46539122      -1.39703995
Fe       5.62605000       3.84953000       3.25301000      -4.56775200       3.43217100       2.09526400      -4.47013299       3.48973775       1.06858482
Fe       5.63153000       5.70233000       4.67966000       0.04558900       0.36352900      -0.74034800      -0.61125099      -0.18143150      -0.55675154
Fe       5.00954000       6.14620000       6.89198000       4.51113600      -2.60361300       1.43664400       3.63489595      -2.41381810       1.37105000
Fe       5.34723000       7.32984000       0.56425000       3.41130600      -7.55812200      -7.44238600       3.22881242      -6.78933075      -7.18386720
Fe       4.57141000       8.20633000       1.67615000      -2.51651100       6.57056000       9.11650700      -2.98308235       6.06377901       8.90389618
Fe       5.67084000       7.83697000       6.02451000      -0.02983000       3.57151200       0.33120700       0.00033192       4.38756367       0.43673371
Fe       7.65837000       1.05332000       0.64336000       1.95813700       2.93603900      -3.62028800       1.62986802       2.78861756      -3.73027028
Fe       7.23579000       1.49494000       3.62009000       0.88838800      -1.50203300       3.00240400       0.45179326      -1.20951820       3.12500808
Fe       6.96409000       1.59543000       6.70415000       0.40175100      -2.57633900      -0.54943900       0.43745764      -3.05554317      -0.47241067
Fe       6.97946000       3.05325000       2.27831000       3.01329100      -2.85779700      -7.80747400       2.50739117      -3.86300263      -6.36704444
Fe       7.05854000       3.62734000       7.13255000       0.94483300       2.42104600       2.56329500       0.97654141       2.87151533       2.19048381
Fe       7.47490000       4.49325000       0.92243000      -3.13561000       0.06366500       0.11142200      -3.24388624       0.74506704      -0.80254913
Fe       7.76499000       5.40883000       4.05655000       3.42051700      -2.49950500       1.10150300       3.55551024      -2.29644615       0.84086478
Fe       6.91686000       6.16423000       2.38917000      -4.34160700       0.52717700      -3.24358900      -4.79971827       0.19315510      -2.78512958
Fe       7.31773000       7.39473000       4.73130000      -1.41907300       3.06948200       1.38572900      -1.14185041       3.33641127       0.91256630
B        1.63947000       5.44017000       2.85377000      -1.37965300       1.67099600      -0.34434500      -1.49783069       1.59515239      -0.21306581
B        3.47444000       1.29905000       1.69513000      -6.04542900      -7.46227000      -1.52467000      -5.70902402      -7.50805016      -1.09318156
B        2.31673000       1.42955000       3.77944000      -1.85652800      -2.14982900       3.21956500      -1.37862297      -1.90806261       3.02773848
B        3.17088000       0.01260000       8.16689000      -2.14308300      -0.12737100      -3.63430700      -1.75629390      -0.47702260      -3.02627055
B        2.48887000       2.23189000       2.44876000      -1.30373000       3.96631200      -0.94871100      -1.18378980       4.07384809      -0.23965139
B        3.55016000       3.21990000       0.17024000       2.13469500      -3.52588700       0.23974700       1.64527687      -3.44751414       0.73304392
B        3.12966000       3.07291000       4.24572000      -6.99085300       0.34377600      -0.16579100      -6.82207234       0.08241696       0.12214289
B        2.38358000       5.95301000       6.34325000       2.25901800      -8.76611800      -6.31465800       2.49955663      -9.40859557      -6.44742996
B        4.46260000       2.62992000       4.23823000       7.08507900      -1.75449200       0.40993300       5.83398160      -2.00248479       0.03126751
B        7.51183000       3.59374000       3.85724000       1.49621300      -1.20378300       3.39561400       1.53181844      -0.94927084       3.49716702
Si       0.50050000       1.66927000       5.10425000      -1.02554400      -2.67263500       2.61432900      -0.66722141      -2.60131257       2.33900953
Si       0.41923000       4.50138000       8.15701000       0.82744200      -0.47721100      -2.57541600       0.94750257      -0.11955831      -2.70627579
Si       2.90131000       4.25049000       1.93860000       2.71957100       0.04497600      -0.88170100       2.69035481       0.07843517      -0.65796249
Si       3.74353000       6.85388000       5.19884000      -1.20766000       1.80214700      -2.20114300      -1.21554611       1.49438011      -1.84936129
Si       3.54209000       6.47938000       8.21357000      -0.45014500      -1.75854100       4.24377300      -0.39375383      -1.71722441       4.53896041
Si       4.55252000       1.74669000       6.40118000       0.28733400       0.20348600      -1.69136000      -0.20677296       0.21350851      -1.46413885
Si       5.87020000       3.30923000       5.41310000       1.93974000       0.55942400      -1.14043100       1.95060884       0.99909712      -0.77867079
Si       6.68392000       0.09389000       2.07850000      -2.78148600      -1.30329400       2.70552900      -2.53552130      -1.29507432       2.46321934
Si       7.30980000       7.36953000       0.08595000       4.18267400      -0.22507900      -1.67891000       4.24090548      -0.93103802      -1.76603558
Si       8.41387000       7.50606000       2.97540000       5.08859000       1.78741200      -0.88875800       4.91972913       1.95452548      -0.70215904
54
Lattice="8.579999685 0.0 0.0 0.0 8.579999685 0.0 0.0 0.0 8.5799996" Properties=species:S:1:pos:R:3:REF_forces:R:3:MACE_forces:R:3 config_type=Fe34B10Si10 REF_energy=-359.84864784 MACE_energy=-360.5981743382193 pbc="T T T"
Fe       0.39531000       2.37288000       0.87042000       3.27925500       2.43832800      -1.60261100       2.97430324       2.68016390      -1.56114187
Fe       0.75383000       1.65209000       3.11094000       1.30783500      -0.34615400      -0.09267000       0.70417416      -0.63565512       0.24466363
Fe       1.33201000       3.79282000       7.26231000      -2.40668100      -1.18131200       0.32245500      -2.02159510      -0.70745988       0.79240669
Fe       0.64436000       4.41396000       2.97573000       2.42004200      -2.26182600       0.38963900       2.10400448      -2.17246123       0.56191076
Fe       0.14751000       6.42079000       3.51005000      -3.07002100       1.32407200      -2.30638400      -2.98399132       1.11706790      -2.33826095