54
Lattice="8.579999685 0.0 0.0 0.0 8.579999685 0.0 0.0 0.0 8.5799996" Properties=species:S:1:pos:R:3:REF_forces:R:3:MACE_forces:R:3 config_type=Fe34B10Si10 REF_energy=-352.89092233 MACE_energy=-353.2880492900014 pbc="T T T"
Fe       1.46495000       0.71583000       1.12880000       3.73230100      -3.41607500      -3.76209700       3.66118952      -3.43658041      -3.53092624
Fe       0.56244000       2.07917000       1.96452000      -3.31290700       4.06628900       2.54508600      -3.34505009       4.05959219       2.34705041
Fe       0.86636000       2.12990000       5.00906000     -10.85567700      -2.87102900      12.20968700     -10.87859806      -2.94439936      12.20597716
Fe       0.24697000       2.61233000       7.83061000      -0.37811800      -2.03816900      -0.08744800      -0.37358672      -2.05971569       0.08935270
Fe       0.35437000       4.66395000       8.16447000      -1.30300600       1.62250000       0.84662400      -1.36000011       1.76873398       0.78171604
Fe       0.83543000       8.00840000       3.01492000       5.54921000      -2.55787300       0.52513800       5.60354774      -2.64033725       0.46758053
Fe       2.03952000       7.84431000       6.63062000      -4.28706100       1.82495200      -1.68802900      -4.07595269       2.03345443      -1.71993641
Fe       3.34318000       0.11090000       2.96052000      -0.46571400      -0.35056300       0.37864800      -0.49696606      -0.16923791       0.45465304
Fe       3.26317000       2.11539000       1.48699000      -3.47884800      -0.03222100       0.61542300      -3.30189772      -0.25637866       0.25341152
Fe       4.14313000       2.75755000       3.31065000      -0.71378000      -2.73118300       1.93004800      -0.70050928      -2.44311215       1.88143220
Fe       2.55051000       2.67374000       7.19710000      -2.55215900      -0.93589000       1.77261600      -2.26549647      -1.02803617       1.69571203
Fe       3.61327000       2.86500000       5.46497000       1.55763200       0.20514300      -0.56676300       1.45856565       0.29640399      -0.28785047
Fe       2.62400000       4.72550000       1.39174000      -1.08585200      -1.19598700       0.59645400      -1.33520863      -0.97279734       0.67771335
Fe       2.20317000       5.21693000       3.87451000      -3.92870900      -4.38103900      -4.92199500      -3.91194777      -4.32773647      -5.06405693
Fe       3.93082000       4.37819000       8.08226000       1.07616800       0.44807800      -0.99700400       0.95574165       0.23797751      -1.00666480
Fe       2.44961000       7.01753000       1.08943000       0.32119000      -1.55635000       3.27006500       0.44140918      -1.60181943       3.34974037
Fe       3.02500000       6.15780000       5.08193000      -1.08486800       1.64126100       3.95415400      -0.33468830       1.71022867       4.03471260
Fe       5.77712000       0.44616000       0.16142000      -2.43333700       0.07175000       4.13474700      -2.42100017       0.41660623       4.17629679
Fe       5.66964000       0.14892000       2.95259000      -3.67617900       1.90971100       0.12919700      -3.69295065       1.66053750       0.31162936
Fe       5.39484000       2.66317000       1.55162000       4.08183700      -3.39937100       3.88213200       3.98723685      -3.76680813       4.14605287
Fe       5.91309000       3.40423000       8.31953000       8.90196200       5.48305700      -2.72562400       8.73204995       5.40658153      -2.75753561
Fe       4.96126000       4.63305000       3.41410000      -3.60269200      -2.00302700       2.25051900      -3.89017294      -2.35343789       2.39258970
Fe       5.11347000       6.81217000       1.78872000      -0.87770500       0.06714300      -1.61156800      -0.72781728       0.12798385      -1.64798505
Fe       5.00950000       6.45991000       8.24507000      -2.30619500      -0.19808200      -1.52355700      -2.20867745      -0.02760272      -1.75464963
Fe       4.64263000       7.71190000       5.75084000       2.50156800       4.23919200      -1.55456800       2.55851031       4.27920641      -1.60286847
Fe       7.32285000       0.33022000       5.03535000      -0.99210900      -0.59745100       4.73628300      -0.96787169      -0.35458448       4.69955983
Fe       6.75330000       1.32958000       7.05071000       0.53851300       2.01290400       0.36400700       0.48796601       1.86867778       0.32278509
Fe       6.82686000       2.53028000       3.66692000      -0.08907100      -0.12987400      -0.26318300       0.03634142      -0.19377090      -0.20767274
Fe       6.83617000       5.56618000       0.59386000       1.74434500       1.47371700      -3.32847200       1.78562006       1.75688646      -3.48677685
Fe       8.27091000       4.29855000       2.87718000       3.23308900       0.33980500       1.37352500       3.08813862       0.18278346       1.32480586
Fe       6.58774000       4.90718000       4.97515000      -1.87594500       0.58060600      -0.05143700      -2.07504852       0.59142168      -0.50541731
Fe       6.86773000       6.79187000       3.27473000       1.52763600      -2.76254700       0.67579100       1.47144561      -2.44788000       0.36485076
Fe       8.09083000       8.29691000       0.84396000      -4.18921500      -1.95965200       9.56442300      -4.19603546      -2.24046062       9.63948371
Fe       6.62133000       7.67903000       7.47205000      -3.65417600       1.51975600      -3.32990400      -3.97926994       1.30085521      -3.46990796
B        3.45077000       6.81738000       6.75435000       2.04131500      -2.79808300       3.80923700       1.96570391      -2.87500952       3.91404705
B        4.67436000       1.10514000       4.73414000       0.75036200       0.95391600      -0.52852700       0.79591973       0.94896488      -0.42607346
B        6.18153000       2.20088000       5.47737000      -4.49435700      -3.20609500      -2.27763700      -4.63205553      -3.15725005      -2.46046316
B        5.08133000       4.10197000       6.35983000       0.35152900       0.25548900      -0.65354500       0.48912013       0.28352607      -0.56916023
B        4.48663000       4.29393000       1.40792000      -0.27448100       1.04603100       0.21283300      -0.23590518       1.22806804       0.22395724
B        4.96286000       5.88068000       6.14703000       0.60492000      -1.85032800       0.29314600       0.46537006      -1.85458429       0.12571972
B        8.17242000       5.65216000       5.55863000       1.00443800       0.65677900      -0.69824300       1.06655757       0.70945430      -0.22989024
B        7.98743000       6.92663000       6.60530000       5.86774900       2.58695800      -4.05103700       5.77009929       2.29693711      -3.55673731
B        7.10769000       5.72812000       6.91109000      -2.33709700      -3.34606800       1.34633400      -2.12848902      -3.42213528       1.50560191
B        7.81665000       6.81498000       8.33858000       5.04350100      -2.41043400       0.97359300       4.99698433      -2.58514045       0.50292133
Si       0.06983000       0.14925000       7.74742000       4.12649000       2.60901100      -8.87608100       3.97135121       2.58230523      -8.80981560
Si       1.93337000       2.41223000       3.74634000      10.14534600       2.98113100     -12.18526000      10.21915922       3.04750250     -12.01396254
Si       0.75978000       6.02813000       1.69309000      -4.13401100      -0.74920300       1.02787300      -4.13283639      -0.86997864       0.96260710
Si       2.22023000       5.10313000       7.16329000      -1.58663400       1.19675500      -1.89967800      -1.66557740       1.16782908      -1.84437581
Si       3.27754000       8.17117000       8.35443000       4.04667900       4.58101600      -2.24829100       3.91416045       4.51794550      -2.37310674
Si       4.48145000       2.18337000       8.34202000      -5.72220500      -5.96162700      -4.99603400      -5.45476931      -5.90551362      -5.15542970
Si       6.36439000       4.54151000       2.12641000       2.28764700      -2.33178900       1.39384200       2.57186523      -2.14538031       1.25747701
Si       4.52267000       6.51460000       3.75633000       0.42177200       5.22743800       1.25328700       0.12392136       5.31242853       1.34545693
Si       7.68278000       0.22257000       3.11016000      -0.17295300       4.89916800      -3.86478000      -0.23030761       4.85807568      -3.93143971
Si       7.35363000       3.38410000       6.13231000       4.40786200       1.27045000       2.62604800       4.40071138       1.42871994       2.95780878
54
Lattice="8.579999685 0.0 0.0 0.0 8.579999685 0.0 0.0 0.0 8.5799996" Properties=species:S:1:pos:R:3:REF_forces:R:3:MACE_forces:R:3 config_type=Fe34B10Si10 REF_energy=-354.71875992 MACE_energy=-355.3864478349774 pbc="T T T"
Fe       0.43313000       1.19321000       2.96848000       1.47291300       2.99028000       0.61180900       1.46023162       2.89418850       0.37909584
Fe       0.91365000       1.12516000       8.09995000       2.76260400      -2.00335600       1.20968300       2.38463678      -1.84448309       1.07871348
Fe       1.17142000       2.67870000       5.23446000      -1.90323000       6.04651700       0.58026800      -1.68881661       6.13993401       0.36828690
Fe       0.60772000       3.85484000       0.87278000       2.66909500       4.89444800       4.53699300       2.64691065       5.10121981       4.12604191
Fe       1.41565000       3.44858000       3.01161000      -0.29549500       2.03729500      -0.74017400       0.00332174       1.92679423      -0.66326605
Fe       0.04226000       2.91249000       8.09734000      -3.39897200      -2.84207300      -2.69442200      -2.77857820      -3.00962242      -2.44724269
Fe       1.33282000       7.09057000       5.22634000      -0.45239700      -1.35392500       0.92503500      -0.23329558      -1.47356294       0.94840478
Fe       2.06045000       7.92051000       0.98063000      -3.11321000      -0.30108300      -2.49280600      -3.27693751      -0.43397311      -2.48780912
Fe       2.03627000       8.24295000       3.50701000      -1.42216600       4.38122900       0.88517600      -1.52411287       4.10401241       0.63311299
Fe       0.01253000       8.02686000       7.00667000       2.58679700       0.98610200     -11.80201700       2.47041676       0.87783794     -11.95338011
Fe       3.00353000       0.57289000       6.13981000      -1.03922300       0.18357300       0.93137300      -0.77481448       0.14553855       0.98603179
Fe       3.69949000       2.65196000       7.51811000       2.76433000      -4.34399200      -3.80269000       2.60613165      -4.12750646      -3.67824840
Fe       2.94478000       6.44154000       3.03987000       7.21319500      -3.66655800      -1.17614100       6.99077387      -3.45971847      -0.98878117
Fe       2.94309000       5.75189000       6.64956000      -6.24071800      -0.74678300       3.86021800      -6.43158226      -0.64123692       4.00438995
Fe       3.71160000       8.39321000       1.86324000       2.24845700      -0.43546600       0.28887200       2.35804271      -0.08978809       0.68078496
Fe       4.07810000       8.43915000       4.32840000       2.88035800       1.28304800      -0.49181300       2.84925367       1.31338940      -0.78381118
Fe       5.57499000       0.73262000       6.31633000      -3.12774100      -1.68249800      -0.98058200      -2.78556283      -1.73416507      -0.92489801
Fe       4.70712000       1.94493000       1.65492000      -2.04675700       4.97917500      -3.67899600      -2.12894045       4.78448359      -3.42465851
Fe       4.73401000       4.18392000       1.24748000       0.71501700       1.80608500      -0.06999200       0.71436546       1.97325534      -0.13006517
Fe       4.56687000       4.22266000       4.39618000       0.73801700       3.32591500      -2.10569900       0.51297457       3.16530499      -2.14512387
Fe       4.51224000       4.61167000       7.05684000       2.53211900      -0.41024200       0.53825400       2.96214272      -0.73231853       0.48389414
Fe       6.32808000       6.81945000       4.24288000      -3.20445400      -0.33519400      -1.28892300      -2.80732991      -0.23449953      -1.07180124
Fe       6.22240000       7.17309000       0.16230000      -3.30904600      -2.75215800       1.90373500      -3.49681212      -2.96229154       2.03727636
Fe       4.54224000       7.44382000       7.03838000       0.17895600      -5.02037800      -8.74618400       0.31051886      -5.28643713      -8.86911871
Fe       4.73272000       8.55832000       8.35561000      -0.10588400       8.96287400       6.54083400      -0.32460317       9.34515846       6.19456435
Fe       7.67285000       2.82429000       2.17742000      -2.12886900      -0.76272600      -2.06587500      -2.12766563      -0.82566937      -1.97661259
Fe       6.74071000       1.77406000       4.33655000       0.47479500       0.50025500      -0.42349800       0.07681345       0.40774007      -0.44945425
Fe       7.16362000       1.61896000       6.68131000       5.11373900       1.83737400       0.70818800       4.69711729       1.62095540       0.63259041
Fe       6.73653000       4.13840000       7.84564000       0.19062300       0.32905600       3.59274800       0.17274722       0.47051092       3.61004452
Fe       6.61248000       5.35948000       2.44590000       0.96755600      -0.77403900      -0.47053600       0.85368212      -0.66688867      -0.44551860
Fe       8.39074000       4.95678000       4.82580000       0.50677700       3.21370700       1.22596300       0.58335468       3.14627308       1.08361333
Fe       6.62275000       6.29700000       6.29237000       0.91106900      -0.58785400       1.74696000       0.82863885      -0.48850156       1.60521726
Fe       8.00875000       8.14674000       2.12563000      -1.25903800      -1.94608200      -3.37077000      -0.86130491      -1.91506054      -3.43297469
Fe       7.96861000       8.10559000       4.08816000       1.24434400       0.03207600       4.40361200       0.72499380       0.04948218       4.56982478
B        3.14587000       1.61638000       2.59818000      -3.96044800      -1.57388800      -2.24367700      -3.98819198      -1.48734345      -2.02307717
B        4.07212000       1.93087000       3.78701000       0.55534200       0.12762300      -3.25123200       0.38778722       0.16989927      -3.21376841
B        2.24412000       1.90783000       4.05913000      -1.80380000      -9.70850100      -5.48536600      -1.87887816     -10.02742892      -5.62918105
B        2.90130000       3.06657000       4.45062000       2.48509300       7.60479000      -1.50334300       2.84039467       7.25160191      -1.51002212
B        2.82587000       3.80138000       5.80651000       0.21675600       2.27927400       3.92227300       0.27397900       2.17269399       3.92738322
B        2.60929000       5.04297000       1.66311000       0.12617300      -0.77075900      -0.46531300      -0.02866461      -0.82490669      -0.45299095
B        2.47198000       4.95014000       4.32601000      -0.76752800      -1.31946700       0.35153300      -0.80395321      -1.21913666       0.42230501
B        2.73354000       7.81887000       7.66829000      -1.47869400      -0.15377200       0.00458000      -1.53079107      -0.16968420       0.22160089
B        5.68071000       2.28134000       7.79544000      -0.95924500       0.41857400       1.11780500      -0.96775836       0.38376987       1.07389093
B        7.77536000       3.70665000       3.76574000      -0.44877700      -1.48394500      -0.38974400      -0.54248587      -1.40913518      -0.07921699
Si       0.79518000       0.92195000       5.77957000      -1.66645900      -4.94136200      -1.10925300      -1.61823874      -5.01384967      -0.96182169
Si       0.88055000       4.20706000       6.73551000       1.15626000       3.58432200      -0.32349000       1.11314844       3.68968099      -0.22769608
Si       1.15025000       6.44729000       2.43826000      -7.77651300      -1.83655100      -1.54918700      -7.82032296      -1.71464447      -1.70397139
Si       2.82820000       3.29548000       0.50208000      -4.05499500       1.58525200       5.32597100      -4.06773047       1.40214443       5.24485655
Si       4.14031000       6.38272000       0.30005000      -2.16949800      -2.44928300       2.57761000      -2.30784876      -2.40303811       2.47313258
Si       3.68345000       6.43010000       5.01209000       3.98893100       0.98565200      -2.13453700       3.85840479       1.16655531      -2.15782005
Si       5.73751000       0.59059000       2.53265000       5.08228400      -4.90021500       2.23852200       5.10347440      -4.85986994       2.49945724
Si       4.51163000       2.47994000       5.36819000       2.60737700      -2.86786400       7.12589500       2.79673018      -2.60065453       7.08202298
Si       6.43436000       3.75222000       5.86206000       1.38008400       0.66155200      -3.64612400       1.50424277       0.72664808      -3.74427775
Si       8.06432000       7.52318000       8.55473000       2.36409700      -3.06603600      11.34847700       2.70999080      -2.77365745      11.21007087
18
Lattice="6.5 0.0 0.0 0.0 6.5 0.0 0.0 0.0 6.5" Properties=species:S:1:pos:R:3:REF_forces:R:3:MACE_forces:R:3 config_type=Fe12B3Si3 REF_energy=-113.87843945 MACE_energy=-113.07370887430062 pbc="T T T"
Fe       5.40234000       5.43492000       1.53729000      -1.39532100       2.04028400       0.71142300      -1.01025900       1.83419475       0.69831599
Fe       2.09750000       2.10361000       0.54730000       2.35673700      -0.33103000       1.27254800       2.55029529      -0.10119182       1.32899759
Fe       2.84360000       1.73250000       3.81271000       2.28004000      -1.18251600      -0.27344700       2.22669795      -0.98463561      -0.21074983
Fe       0.77541000       4.93717000       1.04317000       1.56096300      -3.83372900       1.76362000       1.24223796      -3.39448455       1.58651375
Fe       0.07665000       3.70431000       3.74351000      -0.75952900      -0.39175400      -2.23189700      -1.18967623      -0.48031162      -2.25828797
Fe       4.77171000       3.58949000       4.78220000      -1.99219600      -4.62409700       0.48420500      -1.64130117      -4.51388917       0.38016440
Fe       4.12430000       1.49867000       1.46476000       0.29771700      -2.38794700       0.28396300       0.26917388      -2.66085983       0.10749610
Fe       0.95387000       5.17746000       5.28728000      -0.57085000      -0.50160400      -1.80733600      -0.93715744      -0.67187758      -1.36275620
Fe       1.93602000       3.09888000       2.36598000      -0.08855100       0.43128300      -0.27209000      -0.22046051       0.48884532      -0.60942956
Fe       5.69037000       1.28357000       4.20026000      -0.40866000      -0.49067900       0.18976600      -0.82886446      -0.31436566       0.23645851
Fe       1.94321000       2.86141000       5.39871000      -0.55906500       0.73218900      -1.80086600      -0.46772307       0.67788083      -1.93866015
Fe       4.33122000       5.38124000       5.25469000      -0.73272900       4.56545400       1.52017900      -0.55909889       4.35258405       1.55936365
B        0.37598000       1.64060000       1.21420000      -3.21263000       2.85095800       0.76078000      -2.99811883       2.70653767       0.83855886
B        1.88110000       4.04794000       3.96741000       2.48956600       2.45119300      -0.32261600       2.67099046       2.42076507      -0.27809821
B        3.63878000       0.94242000       5.41981000      -0.01444500       0.67937600       0.95779200       0.12941590       0.81420430       1.09967624
Si       1.19380000       0.26963000       0.19686000       0.54051800       0.24528300      -1.93219100       0.63671169      -0.00460014      -1.84027334
Si       4.57825000       3.47658000       1.16117000       0.15934200       1.26766700      -0.81102600       0.18452868       1.50053523      -0.79205561
Si       1.09558000       0.76720000       2.75124000       0.04909300      -1.52033200       1.50719200      -0.05739220      -1.66933124       1.45476577
54
Lattice="8.579999685 0.0 0.0 0.0 8.579999685 0.0 0.0 0.0 8.5799996" Properties=species:S:1:pos:R:3:REF_forces:R:3:MACE_forces:R:3 config_type=Fe34B10Si10 REF_energy=-356.0869274 MACE_energy=-356.95853684403335 pbc="T T T"
Fe       0.92877000       1.08311000       2.12831000      -0.53214900      -1.15432400       0.53007800      -0.71889121      -1.19402259       0.40173441
Fe       1.12794000       0.45096000       7.37327000      -2.86345100       2.18226700       1.45805300      -2.82804769       1.97260474       1.44278533
Fe       0.91289000       3.61082000       1.96264000      -1.66570100       0.50807500      -4.76654600      -1.71234047       0.36939326      -4.80339528
Fe       0.97242000       3.25012000       3.83975000      -0.85629000      -1.23507100      -0.91491200      -1.09032063      -1.23985310      -0.18352681
Fe       1.43574000       3.84332000       5.84621000      -1.94378300      -0.72872400       4.94145300      -2.07842829      -0.62452854       4.71137335
Fe       0.45897000       5.99881000       1.32384000       1.86679900       1.45939200      -0.33976700       1.63638633       1.52872127      -0.16911656
Fe       0.05714000       6.25044000       6.01250000       0.66851500      -0.88142700       1.67028200       0.69789503      -0.77100888       1.71865787
Fe       1.87526000       7.05991000       7.27744000      -5.90957000       6.81146600       5.95768600      -5.74855408       7.22640365       5.99186131
Fe       4.21220000       0.80536000       3.81626000       0.44958900      -1.97725700       0.54591300       0.48782633      -1.89439791       0.42962224
Fe       2.64196000       0.75311000       5.88605000       0.80305000      -0.92688600      -1.50973400       0.51860045      -1.03843969      -1.56262831
Fe       2.51735000       4.27963000       7.86001000      -0.17185400       2.88247300       0.00075600      -0.00172716       2.94842567       0.17884319
Fe       2.46175000       4.76211000       4.38544000       2.27245000       6.36429500      -0.60000700       2.18458177       6.34856960      -0.70692087
Fe       3.99132000       4.46692000       6.09268000      -0.21521200      -1.96607600      -0.25853400      -0.17165368      -2.26529296      -0.20200409
Fe       4.03283000       6.20484000       2.50717000       0.32509400      -1.83048700       1.07686200       0.41606638      -1.76633615       1.07898077
Fe       2.62183000       8.12097000       1.25125000      -5.45108600      -1.04608100      -0.88869000      -5.51074430      -1.12618242      -0.64794046
Fe       2.34208000       7.49949000       3.33705000      -1.45221900       0.10179900       1.96325000      -1.25409060       0.18106974       1.64023350
Fe       4.67554000       0.98699000       8.35162000       1.97529500       0.95938300       0.07305200       1.65999092       0.85741594       0.31872795
Fe       4.68615000       2.28426000       1.60336000       6.03713100       4.39249100       1.56082500       6.24771218       4.32517785       1.15950916
Fe       4.95897000       4.28949000       0.91503000       1.24258400       3.77490300      -1.07876200       0.80203558       3.56561270      -1.24697021
Fe       5.62605000       3.84953000       3.25301000      -4.56775200       3.43217100       2.09526400      -4.54162825       3.55319483       1.90007958
Fe       5.63153000       5.70233000       4.67966000       0.04558900       0.36352900      -0.74034800       0.01411649      -0.04981593      -0.59627949
Fe       5.00954000       6.14620000       6.89198000       4.51113600      -2.60361300       1.43664400       4.57792994      -2.37870870       1.43889073
Fe       5.34723000       7.32984000       0.56425000       3.41130600      -7.55812200      -7.44238600       3.47335732      -7.02712272      -7.24158021
Fe       4.57141000       8.20633000       1.67615000      -2.51651100       6.57056000       9.11650700      -2.68762974       6.06338212       8.70125347
Fe       5.67084000       7.83697000       6.02451000      -0.02983000       3.57151200       0.33120700      -0.04886114       3.62076709       0.34280764
Fe       7.65837000       1.05332000       0.64336000       1.95813700       2.93603900      -3.62028800       1.88675391       2.92841140      -3.55216645
Fe       7.23579000       1.49494000       3.62009000       0.88838800      -1.50203300       3.00240400       0.94773067      -1.50169387       3.07989400
Fe       6.96409000       1.59543000       6.70415000       0.40175100      -2.57633900      -0.54943900       0.52169095      -2.54522134      -0.57222064
Fe       6.97946000       3.05325000       2.27831000       3.01329100      -2.85779700      -7.80747400       2.46481791      -2.95127124      -7.27607596
Fe       7.05854000       3.62734000       7.13255000       0.94483300       2.42104600       2.56329500       1.03730631       2.48380342       2.50292336
Fe       7.47490000       4.49325000       0.92243000      -3.13561000       0.06366500       0.11142200      -2.89196049       0.47205242      -0.19739015
Fe       7.76499000       5.40883000       4.05655000       3.42051700      -2.49950500       1.10150300       3.49288268      -2.65501053       1.11669913
Fe       6.91686000       6.16423000       2.38917000      -4.34160700       0.52717700      -3.24358900      -4.32072362       0.58651661      -3.20535372
Fe       7.31773000       7.39473000       4.73130000      -1.41907300       3.06948200       1.38572900      -1.47410639       3.00906517       1.39981386
B        1.63947000       5.44017000       2.85377000      -1.37965300       1.67099600      -0.34434500      -1.51541243       1.78127554      -0.59102711
B        3.47444000       1.29905000       1.69513000      -6.04542900      -7.46227000      -1.52467000      -5.89472623      -7.15806769      -1.11219262
B        2.31673000       1.42955000       3.77944000      -1.85652800      -2.14982900       3.21956500      -1.70625255      -1.99006356       3.43870599
B        3.17088000       0.01260000       8.16689000      -2.14308300      -0.12737100      -3.63430700      -1.98978494       0.11469301      -3.57708539
B        2.48887000       2.23189000       2.44876000      -1.30373000       3.96631200      -0.94871100      -0.89852139       3.83130603      -1.29431187
B        3.55016000       3.21990000       0.17024000       2.13469500      -3.52588700       0.23974700       2.14811213      -3.43138908       0.30618837
B        3.12966000       3.07291000       4.24572000      -6.99085300       0.34377600      -0.16579100      -7.10778527       0.14166938      -0.17581512
B        2.38358000       5.95301000       6.34325000       2.25901800      -8.76611800      -6.31465800       2.16650621      -9.24088214      -6.58542296
B        4.46260000       2.62992000       4.23823000       7.08507900      -1.75449200       0.40993300       7.18905630      -1.85755421       0.45461456
B        7.51183000       3.59374000       3.85724000       1.49621300      -1.20378300       3.39561400       1.54840518      -1.08207435       3.22978318
Si       0.50050000       1.66927000       5.10425000      -1.02554400      -2.67263500       2.61432900      -0.79232011      -2.91388215       2.61996044
Si       0.41923000       4.50138000       8.15701000       0.82744200      -0.47721100      -2.57541600       1.06593039      -0.40178275      -2.85219723
Si       2.90131000       4.25049000       1.93860000       2.71957100       0.04497600      -0.88170100       2.89979160      -0.01463429      -1.08032634
Si       3.74353000       6.85388000       5.19884000      -1.20766000       1.80214700      -2.20114300      -1.06765531       2.06648117      -2.14313022
Si       3.54209000       6.47938000       8.21357000      -0.45014500      -1.75854100       4.24377300      -0.53941337      -2.00606020       4.44074107
Si       4.55252000       1.74669000       6.40118000       0.28733400       0.20348600      -1.69136000       0.24432705       0.13428758      -1.62945241
Si       5.87020000       3.30923000       5.41310000       1.93974000       0.55942400      -1.14043100       1.56915869       0.78677520      -1.07576304
Si       6.68392000       0.09389000       2.07850000      -2.78148600      -1.30329400       2.70552900      -2.45688286      -1.23982061       2.81397052
Si       7.30980000       7.36953000       0.08595000       4.18267400      -0.22507900      -1.67891000       4.11779834      -0.50957311      -1.67773041
Si       8.41387000       7.50606000       2.97540000       5.08859000       1.78741200      -0.88875800       5.03169515       1.97761531      -0.90063103
54
Lattice="8.579999685 0.0 0.0 0.0 8.579999685 0.0 0.0 0.0 8.5799996" Properties=species:S:1:pos:R:3:REF_forces:R:3:MACE_forces:R:3 config_type=Fe34B10Si10 REF_energy=-359.84864784 MACE_energy=-360.27098197397396 pbc="T T T"
Fe       0.39531000       2.37288000       0.87042000       3.27925500       2.43832800      -1.60261100       3.21292891       2.69763834      -1.76712519
Fe       0.75383000       1.65209000       3.11094000       1.30783500      -0.34615400      -0.09267000       1.28474325      -0.86939840       0.11727970
Fe       1.33201000       3.79282000       7.26231000      -2.40668100      -1.18131200       0.32245500      -2.57636898      -1.10912476       0.25651158
Fe       0.64436000       4.41396000       2.97573000       2.42004200      -2.26182600       0.38963900       2.49419759      -2.09537408       0.29391653
Fe       0.14751000       6.42079000       3.51005000      -3.07002100       1.32407200      -2.30638400      -3.08950522       1.30348161      -2.42751911