54
Lattice="8.579999685 0.0 0.0 0.0 8.579999685 0.0 0.0 0.0 8.5799996" Properties=species:S:1:pos:R:3:REF_forces:R:3:MACE_forces:R:3 config_type=Fe34B10Si10 REF_energy=-352.89092233 MACE_energy=-352.7743582291284 pbc="T T T"
Fe       1.46495000       0.71583000       1.12880000       3.73230100      -3.41607500      -3.76209700       3.77228147      -3.55519723      -3.75523395
Fe       0.56244000       2.07917000       1.96452000      -3.31290700       4.06628900       2.54508600      -3.39693885       4.15235739       2.43221434
Fe       0.86636000       2.12990000       5.00906000     -10.85567700      -2.87102900      12.20968700     -10.93139019      -2.94703717      12.14381605
Fe       0.24697000       2.61233000       7.83061000      -0.37811800      -2.03816900      -0.08744800      -0.30072286      -2.03946527       0.15920715
Fe       0.35437000       4.66395000       8.16447000      -1.30300600       1.62250000       0.84662400      -1.36564095       1.60639361       0.81015158
Fe       0.83543000       8.00840000       3.01492000       5.54921000      -2.55787300       0.52513800       5.52260676      -2.62603294       0.45282156
Fe       2.03952000       7.84431000       6.63062000      -4.28706100       1.82495200      -1.68802900      -4.05224593       2.01081329      -1.69134787
Fe       3.34318000       0.11090000       2.96052000      -0.46571400      -0.35056300       0.37864800      -0.45063697      -0.19772923       0.50262985
Fe       3.26317000       2.11539000       1.48699000      -3.47884800      -0.03222100       0.61542300      -3.32315246      -0.29171085       0.24277155
Fe       4.14313000       2.75755000       3.31065000      -0.71378000      -2.73118300       1.93004800      -0.65820705      -2.50830201       1.93742461
Fe       2.55051000       2.67374000       7.19710000      -2.55215900      -0.93589000       1.77261600      -2.29758010      -1.03350481       1.71547768
Fe       3.61327000       2.86500000       5.46497000       1.55763200       0.20514300      -0.56676300       1.47592881       0.31169859      -0.26594479
Fe       2.62400000       4.72550000       1.39174000      -1.08585200      -1.19598700       0.59645400      -1.37814842      -0.89513992       0.74753144
Fe       2.20317000       5.21693000       3.87451000      -3.92870900      -4.38103900      -4.92199500      -3.92114331      -4.42541546      -5.08160204
Fe       3.93082000       4.37819000       8.08226000       1.07616800       0.44807800      -0.99700400       1.09194263       0.26984676      -1.10000827
Fe       2.44961000       7.01753000       1.08943000       0.32119000      -1.55635000       3.27006500       0.47292139      -1.65238032       3.31281516
Fe       3.02500000       6.15780000       5.08193000      -1.08486800       1.64126100       3.95415400      -0.46490626       1.64519563       3.99832105
Fe       5.77712000       0.44616000       0.16142000      -2.43333700       0.07175000       4.13474700      -2.39117795       0.42500254       4.17972975
Fe       5.66964000       0.14892000       2.95259000      -3.67617900       1.90971100       0.12919700      -3.69455277       1.66472469       0.28255508
Fe       5.39484000       2.66317000       1.55162000       4.08183700      -3.39937100       3.88213200       3.90851975      -3.77544344       4.07518095
Fe       5.91309000       3.40423000       8.31953000       8.90196200       5.48305700      -2.72562400       8.70985093       5.52739379      -2.78663513
Fe       4.96126000       4.63305000       3.41410000      -3.60269200      -2.00302700       2.25051900      -3.83415632      -2.22973924       2.38266789
Fe       5.11347000       6.81217000       1.78872000      -0.87770500       0.06714300      -1.61156800      -0.64284168       0.09859798      -1.61225023
Fe       5.00950000       6.45991000       8.24507000      -2.30619500      -0.19808200      -1.52355700      -2.25234250      -0.05441927      -1.61378206
Fe       4.64263000       7.71190000       5.75084000       2.50156800       4.23919200      -1.55456800       2.57407176       4.24074258      -1.70242418
Fe       7.32285000       0.33022000       5.03535000      -0.99210900      -0.59745100       4.73628300      -1.04795662      -0.37926159       4.73105094
Fe       6.75330000       1.32958000       7.05071000       0.53851300       2.01290400       0.36400700       0.44673516       1.87028713       0.36047663
Fe       6.82686000       2.53028000       3.66692000      -0.08907100      -0.12987400      -0.26318300       0.05164007      -0.20565280      -0.24897186
Fe       6.83617000       5.56618000       0.59386000       1.74434500       1.47371700      -3.32847200       1.81500278       1.90948773      -3.40256810
Fe       8.27091000       4.29855000       2.87718000       3.23308900       0.33980500       1.37352500       3.14380060       0.19676623       1.41655815
Fe       6.58774000       4.90718000       4.97515000      -1.87594500       0.58060600      -0.05143700      -2.08939070       0.50180734      -0.66984966
Fe       6.86773000       6.79187000       3.27473000       1.52763600      -2.76254700       0.67579100       1.44886153      -2.43931634       0.34117729
Fe       8.09083000       8.29691000       0.84396000      -4.18921500      -1.95965200       9.56442300      -4.34269771      -2.30977181       9.50750945
Fe       6.62133000       7.67903000       7.47205000      -3.65417600       1.51975600      -3.32990400      -3.93488794       1.33806170      -3.46190421
B        3.45077000       6.81738000       6.75435000       2.04131500      -2.79808300       3.80923700       1.87935919      -2.77816158       3.96126393
B        4.67436000       1.10514000       4.73414000       0.75036200       0.95391600      -0.52852700       0.83099009       0.87701153      -0.39832142
B        6.18153000       2.20088000       5.47737000      -4.49435700      -3.20609500      -2.27763700      -4.68918273      -3.13419695      -2.36263588
B        5.08133000       4.10197000       6.35983000       0.35152900       0.25548900      -0.65354500       0.56674904       0.36033723      -0.63707089
B        4.48663000       4.29393000       1.40792000      -0.27448100       1.04603100       0.21283300      -0.17203498       1.20404259       0.24410900
B        4.96286000       5.88068000       6.14703000       0.60492000      -1.85032800       0.29314600       0.55425454      -1.92088635       0.19251846
B        8.17242000       5.65216000       5.55863000       1.00443800       0.65677900      -0.69824300       0.97929101       0.80608573      -0.37179273
B        7.98743000       6.92663000       6.60530000       5.86774900       2.58695800      -4.05103700       5.82774694       2.39771570      -3.76241042
B        7.10769000       5.72812000       6.91109000      -2.33709700      -3.34606800       1.34633400      -2.15805760      -3.44192673       1.75453623
B        7.81665000       6.81498000       8.33858000       5.04350100      -2.41043400       0.97359300       5.15447536      -2.67634157       0.56555013
Si       0.06983000       0.14925000       7.74742000       4.12649000       2.60901100      -8.87608100       4.08700843       2.58771194      -8.70296959
Si       1.93337000       2.41223000       3.74634000      10.14534600       2.98113100     -12.18526000      10.19034397       3.08043607     -11.97296783
Si       0.75978000       6.02813000       1.69309000      -4.13401100      -0.74920300       1.02787300      -4.13252976      -0.82372252       0.97350511
Si       2.22023000       5.10313000       7.16329000      -1.58663400       1.19675500      -1.89967800      -1.64061122       1.15487176      -1.95490311
Si       3.27754000       8.17117000       8.35443000       4.04667900       4.58101600      -2.24829100       3.94591354       4.60731052      -2.41430162
Si       4.48145000       2.18337000       8.34202000      -5.72220500      -5.96162700      -4.99603400      -5.56256601      -5.97510659      -5.10296894
Si       6.36439000       4.54151000       2.12641000       2.28764700      -2.33178900       1.39384200       2.48411258      -2.10533558       1.35350264
Si       4.52267000       6.51460000       3.75633000       0.42177200       5.22743800       1.25328700       0.12643866       5.33530647       1.32739930
Si       7.68278000       0.22257000       3.11016000      -0.17295300       4.89916800      -3.86478000      -0.27286595       4.79050945      -3.96390812
Si       7.35363000       3.38410000       6.13231000       4.40786200       1.27045000       2.62604800       4.33771883       1.45068161       2.93229997
54
Lattice="8.579999685 0.0 0.0 0.0 8.579999685 0.0 0.0 0.0 8.5799996" Properties=species:S:1:pos:R:3:REF_forces:R:3:MACE_forces:R:3 config_type=Fe34B10Si10 REF_energy=-354.71875992 MACE_energy=-354.9000838300669 pbc="T T T"
Fe       0.43313000       1.19321000       2.96848000       1.47291300       2.99028000       0.61180900       1.51478003       2.97144569       0.32373561
Fe       0.91365000       1.12516000       8.09995000       2.76260400      -2.00335600       1.20968300       2.41788074      -2.07734504       1.08133593
Fe       1.17142000       2.67870000       5.23446000      -1.90323000       6.04651700       0.58026800      -1.75941173       6.09298595       0.43875131
Fe       0.60772000       3.85484000       0.87278000       2.66909500       4.89444800       4.53699300       2.51410604       4.93077619       4.15426715
Fe       1.41565000       3.44858000       3.01161000      -0.29549500       2.03729500      -0.74017400      -0.09577468       1.89918721      -0.69646795
Fe       0.04226000       2.91249000       8.09734000      -3.39897200      -2.84207300      -2.69442200      -2.79218460      -2.79197217      -2.27111425
Fe       1.33282000       7.09057000       5.22634000      -0.45239700      -1.35392500       0.92503500      -0.22598736      -1.50945950       0.96101267
Fe       2.06045000       7.92051000       0.98063000      -3.11321000      -0.30108300      -2.49280600      -3.06406195      -0.40131094      -2.33511502
Fe       2.03627000       8.24295000       3.50701000      -1.42216600       4.38122900       0.88517600      -1.43660549       4.13773676       0.67015013
Fe       0.01253000       8.02686000       7.00667000       2.58679700       0.98610200     -11.80201700       2.45379087       0.94457528     -11.84695446
Fe       3.00353000       0.57289000       6.13981000      -1.03922300       0.18357300       0.93137300      -0.83353785       0.10242288       1.00183465
Fe       3.69949000       2.65196000       7.51811000       2.76433000      -4.34399200      -3.80269000       2.59818442      -4.10430998      -3.68813306
Fe       2.94478000       6.44154000       3.03987000       7.21319500      -3.66655800      -1.17614100       7.05206928      -3.45817802      -1.00360809
Fe       2.94309000       5.75189000       6.64956000      -6.24071800      -0.74678300       3.86021800      -6.50877021      -0.65837333       3.83197347
Fe       3.71160000       8.39321000       1.86324000       2.24845700      -0.43546600       0.28887200       2.13830567      -0.18586320       0.65797698
Fe       4.07810000       8.43915000       4.32840000       2.88035800       1.28304800      -0.49181300       2.86058778       1.39522381      -0.78357618
Fe       5.57499000       0.73262000       6.31633000      -3.12774100      -1.68249800      -0.98058200      -2.83717427      -1.66109496      -0.85217456
Fe       4.70712000       1.94493000       1.65492000      -2.04675700       4.97917500      -3.67899600      -2.08087318       4.74743270      -3.55620209
Fe       4.73401000       4.18392000       1.24748000       0.71501700       1.80608500      -0.06999200       0.68743342       2.00277897      -0.11542212
Fe       4.56687000       4.22266000       4.39618000       0.73801700       3.32591500      -2.10569900       0.44605716       3.13696479      -2.19049800
Fe       4.51224000       4.61167000       7.05684000       2.53211900      -0.41024200       0.53825400       2.97235714      -0.74914405       0.49070681
Fe       6.32808000       6.81945000       4.24288000      -3.20445400      -0.33519400      -1.28892300      -2.81979813      -0.26303320      -1.13236840
Fe       6.22240000       7.17309000       0.16230000      -3.30904600      -2.75215800       1.90373500      -3.47745347      -3.07893785       2.08805131
Fe       4.54224000       7.44382000       7.03838000       0.17895600      -5.02037800      -8.74618400       0.26934612      -5.26080358      -8.96123702
Fe       4.73272000       8.55832000       8.35561000      -0.10588400       8.96287400       6.54083400      -0.16398178       9.50791893       6.24676979
Fe       7.67285000       2.82429000       2.17742000      -2.12886900      -0.76272600      -2.06587500      -2.06407515      -0.79120888      -2.00143709
Fe       6.74071000       1.77406000       4.33655000       0.47479500       0.50025500      -0.42349800       0.08302515       0.47850343      -0.50045556
Fe       7.16362000       1.61896000       6.68131000       5.11373900       1.83737400       0.70818800       4.78990780       1.70168252       0.63702073
Fe       6.73653000       4.13840000       7.84564000       0.19062300       0.32905600       3.59274800       0.09616960       0.51445302       3.64826175
Fe       6.61248000       5.35948000       2.44590000       0.96755600      -0.77403900      -0.47053600       0.84823832      -0.70076611      -0.51107472
Fe       8.39074000       4.95678000       4.82580000       0.50677700       3.21370700       1.22596300       0.55677306       3.10561070       1.10942786
Fe       6.62275000       6.29700000       6.29237000       0.91106900      -0.58785400       1.74696000       0.78245365      -0.46202181       1.60944538
Fe       8.00875000       8.14674000       2.12563000      -1.25903800      -1.94608200      -3.37077000      -0.88277918      -1.93273401      -3.39762665
Fe       7.96861000       8.10559000       4.08816000       1.24434400       0.03207600       4.40361200       0.69659293      -0.03851359       4.49134828
B        3.14587000       1.61638000       2.59818000      -3.96044800      -1.57388800      -2.24367700      -3.98267312      -1.48170047      -1.97290853
B        4.07212000       1.93087000       3.78701000       0.55534200       0.12762300      -3.25123200       0.43660594       0.06462549      -3.27768814
B        2.24412000       1.90783000       4.05913000      -1.80380000      -9.70850100      -5.48536600      -1.85479263      -9.89823154      -5.56813036
B        2.90130000       3.06657000       4.45062000       2.48509300       7.60479000      -1.50334300       2.89029554       7.37139190      -1.42986619
B        2.82587000       3.80138000       5.80651000       0.21675600       2.27927400       3.92227300       0.35668545       2.13811611       3.82133214
B        2.60929000       5.04297000       1.66311000       0.12617300      -0.77075900      -0.46531300      -0.08561304      -0.74248056      -0.35095300
B        2.47198000       4.95014000       4.32601000      -0.76752800      -1.31946700       0.35153300      -0.80552041      -1.23761201       0.27780756
B        2.73354000       7.81887000       7.66829000      -1.47869400      -0.15377200       0.00458000      -1.54253488      -0.19132438       0.16417522
B        5.68071000       2.28134000       7.79544000      -0.95924500       0.41857400       1.11780500      -0.90976035       0.34587793       1.07211106
B        7.77536000       3.70665000       3.76574000      -0.44877700      -1.48394500      -0.38974400      -0.53929303      -1.40257162      -0.02503169
Si       0.79518000       0.92195000       5.77957000      -1.66645900      -4.94136200      -1.10925300      -1.61934395      -5.13661298      -0.95118587
Si       0.88055000       4.20706000       6.73551000       1.15626000       3.58432200      -0.32349000       1.10559812       3.79783599      -0.17783806
Si       1.15025000       6.44729000       2.43826000      -7.77651300      -1.83655100      -1.54918700      -7.91913802      -1.75657031      -1.73372067
Si       2.82820000       3.29548000       0.50208000      -4.05499500       1.58525200       5.32597100      -4.14491617       1.50789465       5.27459237
Si       4.14031000       6.38272000       0.30005000      -2.16949800      -2.44928300       2.57761000      -2.18917905      -2.52090134       2.56750471
Si       3.68345000       6.43010000       5.01209000       3.98893100       0.98565200      -2.13453700       3.86362008       1.19257673      -2.07049055
Si       5.73751000       0.59059000       2.53265000       5.08228400      -4.90021500       2.23852200       5.20413048      -4.94798275       2.49905843
Si       4.51163000       2.47994000       5.36819000       2.60737700      -2.86786400       7.12589500       2.77169446      -2.64207593       6.97795066
Si       6.43436000       3.75222000       5.86206000       1.38008400       0.66155200      -3.64612400       1.58630260       0.81628112      -3.78417973
Si       8.06432000       7.52318000       8.55473000       2.36409700      -3.06603600      11.34847700       2.64224181      -2.82116460      11.08885602
18
Lattice="6.5 0.0 0.0 0.0 6.5 0.0 0.0 0.0 6.5" Properties=species:S:1:pos:R:3:REF_forces:R:3:MACE_forces:R:3 config_type=Fe12B3Si3 REF_energy=-113.87843945 MACE_energy=-113.38759735188842 pbc="T T T"
Fe       5.40234000       5.43492000       1.53729000      -1.39532100       2.04028400       0.71142300      -1.20811837       2.02752679       0.72071773
Fe       2.09750000       2.10361000       0.54730000       2.35673700      -0.33103000       1.27254800       2.52257025      -0.11952975       1.08321232
Fe       2.84360000       1.73250000       3.81271000       2.28004000      -1.18251600      -0.27344700       2.21339720      -1.06568476      -0.15254745
Fe       0.77541000       4.93717000       1.04317000       1.56096300      -3.83372900       1.76362000       1.49054803      -3.65749587       1.48447453
Fe       0.07665000       3.70431000       3.74351000      -0.75952900      -0.39175400      -2.23189700      -0.97453490      -0.39905579      -2.29956504
Fe       4.77171000       3.58949000       4.78220000      -1.99219600      -4.62409700       0.48420500      -1.81539730      -4.63701035       0.43935937
Fe       4.12430000       1.49867000       1.46476000       0.29771700      -2.38794700       0.28396300       0.31987658      -2.69201040       0.15278226
Fe       0.95387000       5.17746000       5.28728000      -0.57085000      -0.50160400      -1.80733600      -0.94512589      -0.69324451      -1.31312093
Fe       1.93602000       3.09888000       2.36598000      -0.08855100       0.43128300      -0.27209000      -0.11406246       0.61830364      -0.38057762
Fe       5.69037000       1.28357000       4.20026000      -0.40866000      -0.49067900       0.18976600      -0.62969368      -0.27384683       0.13541146
Fe       1.94321000       2.86141000       5.39871000      -0.55906500       0.73218900      -1.80086600      -0.65307630       0.85404391      -1.85238585
Fe       4.33122000       5.38124000       5.25469000      -0.73272900       4.56545400       1.52017900      -0.74934125       4.44119531       1.52727872
B        0.37598000       1.64060000       1.21420000      -3.21263000       2.85095800       0.76078000      -3.13294437       2.71702278       0.94985996
B        1.88110000       4.04794000       3.96741000       2.48956600       2.45119300      -0.32261600       2.68708748       2.27946757      -0.40576185
B        3.63878000       0.94242000       5.41981000      -0.01444500       0.67937600       0.95779200       0.15721247       0.80336168       1.02642865
Si       1.19380000       0.26963000       0.19686000       0.54051800       0.24528300      -1.93219100       0.68500302       0.03612820      -1.92311970
Si       4.57825000       3.47658000       1.16117000       0.15934200       1.26766700      -0.81102600       0.19726407       1.41775633      -0.71165573
Si       1.09558000       0.76720000       2.75124000       0.04909300      -1.52033200       1.50719200      -0.05066458      -1.65692795       1.51920916
54
Lattice="8.579999685 0.0 0.0 0.0 8.579999685 0.0 0.0 0.0 8.5799996" Properties=species:S:1:pos:R:3:REF_forces:R:3:MACE_forces:R:3 config_type=Fe34B10Si10 REF_energy=-356.0869274 MACE_energy=-356.3245632832446 pbc="T T T"
Fe       0.92877000       1.08311000       2.12831000      -0.53214900      -1.15432400       0.53007800      -0.69199737      -1.25048629       0.38007952
Fe       1.12794000       0.45096000       7.37327000      -2.86345100       2.18226700       1.45805300      -2.85899747       2.01597329       1.46184276
Fe       0.91289000       3.61082000       1.96264000      -1.66570100       0.50807500      -4.76654600      -1.67308006       0.23957465      -4.74023678
Fe       0.97242000       3.25012000       3.83975000      -0.85629000      -1.23507100      -0.91491200      -1.07926132      -1.15255432      -0.45352111
Fe       1.43574000       3.84332000       5.84621000      -1.94378300      -0.72872400       4.94145300      -2.07242570      -0.50745850       4.72183856
Fe       0.45897000       5.99881000       1.32384000       1.86679900       1.45939200      -0.33976700       1.62119906       1.56661280      -0.21487093
Fe       0.05714000       6.25044000       6.01250000       0.66851500      -0.88142700       1.67028200       0.75039263      -0.74251501       1.82009875
Fe       1.87526000       7.05991000       7.27744000      -5.90957000       6.81146600       5.95768600      -5.78449771       7.19449723       5.91103578
Fe       4.21220000       0.80536000       3.81626000       0.44958900      -1.97725700       0.54591300       0.58541059      -1.90896273       0.42553207
Fe       2.64196000       0.75311000       5.88605000       0.80305000      -0.92688600      -1.50973400       0.63271168      -1.09339664      -1.55528339
Fe       2.51735000       4.27963000       7.86001000      -0.17185400       2.88247300       0.00075600      -0.01344651       2.98888544       0.39339636
Fe       2.46175000       4.76211000       4.38544000       2.27245000       6.36429500      -0.60000700       2.27399517       6.41167709      -0.52998747
Fe       3.99132000       4.46692000       6.09268000      -0.21521200      -1.96607600      -0.25853400      -0.24604644      -2.12933358      -0.15564135
Fe       4.03283000       6.20484000       2.50717000       0.32509400      -1.83048700       1.07686200       0.45941330      -1.69211750       1.17618751
Fe       2.62183000       8.12097000       1.25125000      -5.45108600      -1.04608100      -0.88869000      -5.57465197      -1.00746087      -0.54757716
Fe       2.34208000       7.49949000       3.33705000      -1.45221900       0.10179900       1.96325000      -1.30961047       0.22346937       1.58525604
Fe       4.67554000       0.98699000       8.35162000       1.97529500       0.95938300       0.07305200       1.82873726       0.79644488       0.46711709
Fe       4.68615000       2.28426000       1.60336000       6.03713100       4.39249100       1.56082500       6.20457479       4.31937360       1.15888416
Fe       4.95897000       4.28949000       0.91503000       1.24258400       3.77490300      -1.07876200       0.61532688       3.39423551      -1.22762542
Fe       5.62605000       3.84953000       3.25301000      -4.56775200       3.43217100       2.09526400      -4.65473746       3.48122513       1.95736573
Fe       5.63153000       5.70233000       4.67966000       0.04558900       0.36352900      -0.74034800       0.13111614      -0.08960939      -0.61690653
Fe       5.00954000       6.14620000       6.89198000       4.51113600      -2.60361300       1.43664400       4.50873397      -2.43528522       1.35647978
Fe       5.34723000       7.32984000       0.56425000       3.41130600      -7.55812200      -7.44238600       3.30567824      -7.10455381      -7.33152223
Fe       4.57141000       8.20633000       1.67615000      -2.51651100       6.57056000       9.11650700      -2.59293616       6.24787869       8.75190529
Fe       5.67084000       7.83697000       6.02451000      -0.02983000       3.57151200       0.33120700      -0.08130642       3.75586314       0.40649451
Fe       7.65837000       1.05332000       0.64336000       1.95813700       2.93603900      -3.62028800       1.89839041       2.98324693      -3.49696301
Fe       7.23579000       1.49494000       3.62009000       0.88838800      -1.50203300       3.00240400       0.98701169      -1.60237686       3.01703248
Fe       6.96409000       1.59543000       6.70415000       0.40175100      -2.57633900      -0.54943900       0.53525754      -2.52697245      -0.51973281
Fe       6.97946000       3.05325000       2.27831000       3.01329100      -2.85779700      -7.80747400       2.51392427      -3.01907693      -7.19874548
Fe       7.05854000       3.62734000       7.13255000       0.94483300       2.42104600       2.56329500       1.06782624       2.45020411       2.50992363
Fe       7.47490000       4.49325000       0.92243000      -3.13561000       0.06366500       0.11142200      -2.92314290       0.42502578      -0.35809710
Fe       7.76499000       5.40883000       4.05655000       3.42051700      -2.49950500       1.10150300       3.47080613      -2.66168017       1.16454540
Fe       6.91686000       6.16423000       2.38917000      -4.34160700       0.52717700      -3.24358900      -4.28183952       0.65025681      -3.17310403
Fe       7.31773000       7.39473000       4.73130000      -1.41907300       3.06948200       1.38572900      -1.38249497       3.07483157       1.28629820
B        1.63947000       5.44017000       2.85377000      -1.37965300       1.67099600      -0.34434500      -1.41614706       1.76208844      -0.57236022
B        3.47444000       1.29905000       1.69513000      -6.04542900      -7.46227000      -1.52467000      -5.88550246      -7.27505420      -1.20502305
B        2.31673000       1.42955000       3.77944000      -1.85652800      -2.14982900       3.21956500      -1.78777844      -1.97162908       3.52275614
B        3.17088000       0.01260000       8.16689000      -2.14308300      -0.12737100      -3.63430700      -2.12925211       0.05161622      -3.57077220
B        2.48887000       2.23189000       2.44876000      -1.30373000       3.96631200      -0.94871100      -0.86193554       3.91281482      -1.25084857
B        3.55016000       3.21990000       0.17024000       2.13469500      -3.52588700       0.23974700       2.07090078      -3.42144061       0.14225950
B        3.12966000       3.07291000       4.24572000      -6.99085300       0.34377600      -0.16579100      -7.16856257      -0.00768670      -0.36032415
B        2.38358000       5.95301000       6.34325000       2.25901800      -8.76611800      -6.31465800       2.25704655      -9.20153973      -6.50087919
B        4.46260000       2.62992000       4.23823000       7.08507900      -1.75449200       0.40993300       7.23811439      -1.67995438       0.45447113
B        7.51183000       3.59374000       3.85724000       1.49621300      -1.20378300       3.39561400       1.51413800      -1.11321876       3.34789029
Si       0.50050000       1.66927000       5.10425000      -1.02554400      -2.67263500       2.61432900      -0.87603934      -2.95849309       2.48334507
Si       0.41923000       4.50138000       8.15701000       0.82744200      -0.47721100      -2.57541600       1.09186028      -0.52528261      -2.81264413
Si       2.90131000       4.25049000       1.93860000       2.71957100       0.04497600      -0.88170100       2.95849745      -0.06972331      -1.15066351
Si       3.74353000       6.85388000       5.19884000      -1.20766000       1.80214700      -2.20114300      -1.10458273       1.91898199      -2.20235104
Si       3.54209000       6.47938000       8.21357000      -0.45014500      -1.75854100       4.24377300      -0.58790634      -1.98938600       4.44153614
Si       4.55252000       1.74669000       6.40118000       0.28733400       0.20348600      -1.69136000       0.28102405       0.18262978      -1.74832452
Si       5.87020000       3.30923000       5.41310000       1.93974000       0.55942400      -1.14043100       1.56091238       0.72211319      -1.19931711
Si       6.68392000       0.09389000       2.07850000      -2.78148600      -1.30329400       2.70552900      -2.45653138      -1.20416829       2.84727273
Si       7.30980000       7.36953000       0.08595000       4.18267400      -0.22507900      -1.67891000       4.12965587      -0.46706728      -1.66192419
Si       8.41387000       7.50606000       2.97540000       5.08859000       1.78741200      -0.88875800       5.00205472       2.03896388      -0.83559793
54
Lattice="8.579999685 0.0 0.0 0.0 8.579999685 0.0 0.0 0.0 8.5799996" Properties=species:S:1:pos:R:3:REF_forces:R:3:MACE_forces:R:3 config_type=Fe34B10Si10 REF_energy=-359.84864784 MACE_energy=-359.8527715478207 pbc="T T T"
Fe       0.39531000       2.37288000       0.87042000       3.27925500       2.43832800      -1.60261100       3.24418968       2.52376880      -1.72120934
Fe       0.75383000       1.65209000       3.11094000       1.30783500      -0.34615400      -0.09267000       1.25791848      -0.77548066       0.24135552
Fe       1.33201000       3.79282000       7.26231000      -2.40668100      -1.18131200       0.32245500      -2.55905701      -1.05380747       0.15209278
Fe       0.64436000       4.41396000       2.97573000       2.42004200      -2.26182600       0.38963900       2.47272959      -2.02618954       0.21264789
Fe       0.14751000       6.42079000       3.51005000      -3.07002100       1.32407200      -2.30638400      -3.10390788       1.38701711      -2.56050576