54
Lattice="8.579999685 0.0 0.0 0.0 8.579999685 0.0 0.0 0.0 8.5799996" Properties=species:S:1:pos:R:3:REF_forces:R:3:MACE_forces:R:3 config_type=Fe34B10Si10 REF_energy=-352.89092233 MACE_energy=-353.22236351461197 pbc="T T T"
Fe       1.46495000       0.71583000       1.12880000       3.73230100      -3.41607500      -3.76209700       3.76647794      -3.52619493      -3.72886224
Fe       0.56244000       2.07917000       1.96452000      -3.31290700       4.06628900       2.54508600      -3.38793869       4.14143223       2.43351345
Fe       0.86636000       2.12990000       5.00906000     -10.85567700      -2.87102900      12.20968700     -10.94188430      -2.93996525      12.16252508
Fe       0.24697000       2.61233000       7.83061000      -0.37811800      -2.03816900      -0.08744800      -0.30996791      -2.06086318       0.14038136
Fe       0.35437000       4.66395000       8.16447000      -1.30300600       1.62250000       0.84662400      -1.36455731       1.64356674       0.80973440
Fe       0.83543000       8.00840000       3.01492000       5.54921000      -2.55787300       0.52513800       5.53318548      -2.63792075       0.45135651
Fe       2.03952000       7.84431000       6.63062000      -4.28706100       1.82495200      -1.68802900      -4.03771427       2.02683155      -1.69091290
Fe       3.34318000       0.11090000       2.96052000      -0.46571400      -0.35056300       0.37864800      -0.46828877      -0.18683556       0.49585216
Fe       3.26317000       2.11539000       1.48699000      -3.47884800      -0.03222100       0.61542300      -3.32755820      -0.28642310       0.22705622
Fe       4.14313000       2.75755000       3.31065000      -0.71378000      -2.73118300       1.93004800      -0.67108578      -2.50226814       1.93168374
Fe       2.55051000       2.67374000       7.19710000      -2.55215900      -0.93589000       1.77261600      -2.31421419      -1.04017400       1.71241816
Fe       3.61327000       2.86500000       5.46497000       1.55763200       0.20514300      -0.56676300       1.47250963       0.32212340      -0.26107504
Fe       2.62400000       4.72550000       1.39174000      -1.08585200      -1.19598700       0.59645400      -1.37653888      -0.90467031       0.73337480
Fe       2.20317000       5.21693000       3.87451000      -3.92870900      -4.38103900      -4.92199500      -3.88211704      -4.38855698      -5.03461226
Fe       3.93082000       4.37819000       8.08226000       1.07616800       0.44807800      -0.99700400       1.06796014       0.26996270      -1.10121388
Fe       2.44961000       7.01753000       1.08943000       0.32119000      -1.55635000       3.27006500       0.46952995      -1.64853203       3.31839252
Fe       3.02500000       6.15780000       5.08193000      -1.08486800       1.64126100       3.95415400      -0.47113109       1.59414278       3.92911637
Fe       5.77712000       0.44616000       0.16142000      -2.43333700       0.07175000       4.13474700      -2.40867333       0.43478573       4.19844737
Fe       5.66964000       0.14892000       2.95259000      -3.67617900       1.90971100       0.12919700      -3.69969862       1.66956890       0.28110279
Fe       5.39484000       2.66317000       1.55162000       4.08183700      -3.39937100       3.88213200       3.93767968      -3.77814598       4.09062621
Fe       5.91309000       3.40423000       8.31953000       8.90196200       5.48305700      -2.72562400       8.71201308       5.53111505      -2.78571900
Fe       4.96126000       4.63305000       3.41410000      -3.60269200      -2.00302700       2.25051900      -3.84241673      -2.23647269       2.38677719
Fe       5.11347000       6.81217000       1.78872000      -0.87770500       0.06714300      -1.61156800      -0.65299062       0.11180140      -1.59590838
Fe       5.00950000       6.45991000       8.24507000      -2.30619500      -0.19808200      -1.52355700      -2.23862365      -0.04768001      -1.64522113
Fe       4.64263000       7.71190000       5.75084000       2.50156800       4.23919200      -1.55456800       2.57844961       4.25272594      -1.69010584
Fe       7.32285000       0.33022000       5.03535000      -0.99210900      -0.59745100       4.73628300      -1.04258375      -0.38986004       4.73949100
Fe       6.75330000       1.32958000       7.05071000       0.53851300       2.01290400       0.36400700       0.46100692       1.87889825       0.35795976
Fe       6.82686000       2.53028000       3.66692000      -0.08907100      -0.12987400      -0.26318300       0.04336154      -0.20358944      -0.24954838
Fe       6.83617000       5.56618000       0.59386000       1.74434500       1.47371700      -3.32847200       1.82523156       1.88552488      -3.42283894
Fe       8.27091000       4.29855000       2.87718000       3.23308900       0.33980500       1.37352500       3.14027018       0.20096265       1.39837783
Fe       6.58774000       4.90718000       4.97515000      -1.87594500       0.58060600      -0.05143700      -2.07765275       0.50470085      -0.65189175
Fe       6.86773000       6.79187000       3.27473000       1.52763600      -2.76254700       0.67579100       1.46487004      -2.45254569       0.34639772
Fe       8.09083000       8.29691000       0.84396000      -4.18921500      -1.95965200       9.56442300      -4.33127055      -2.31508374       9.53132362
Fe       6.62133000       7.67903000       7.47205000      -3.65417600       1.51975600      -3.32990400      -3.95010651       1.32789901      -3.46653924
B        3.45077000       6.81738000       6.75435000       2.04131500      -2.79808300       3.80923700       1.87604503      -2.77171103       3.97804418
B        4.67436000       1.10514000       4.73414000       0.75036200       0.95391600      -0.52852700       0.82992410       0.87251670      -0.40557073
B        6.18153000       2.20088000       5.47737000      -4.49435700      -3.20609500      -2.27763700      -4.67944923      -3.14561297      -2.37894509
B        5.08133000       4.10197000       6.35983000       0.35152900       0.25548900      -0.65354500       0.54914534       0.37398753      -0.62862057
B        4.48663000       4.29393000       1.40792000      -0.27448100       1.04603100       0.21283300      -0.18964818       1.19736785       0.24476652
B        4.96286000       5.88068000       6.14703000       0.60492000      -1.85032800       0.29314600       0.53405319      -1.92771769       0.17195039
B        8.17242000       5.65216000       5.55863000       1.00443800       0.65677900      -0.69824300       0.99161058       0.80045244      -0.33166673
B        7.98743000       6.92663000       6.60530000       5.86774900       2.58695800      -4.05103700       5.80420964       2.35925143      -3.76227716
B        7.10769000       5.72812000       6.91109000      -2.33709700      -3.34606800       1.34633400      -2.13393550      -3.40930204       1.71088753
B        7.81665000       6.81498000       8.33858000       5.04350100      -2.41043400       0.97359300       5.14448683      -2.67709465       0.57946280
Si       0.06983000       0.14925000       7.74742000       4.12649000       2.60901100      -8.87608100       4.07189345       2.60300795      -8.71974198
Si       1.93337000       2.41223000       3.74634000      10.14534600       2.98113100     -12.18526000      10.21534645       3.07550874     -11.99836564
Si       0.75978000       6.02813000       1.69309000      -4.13401100      -0.74920300       1.02787300      -4.14115813      -0.82896583       0.97744718
Si       2.22023000       5.10313000       7.16329000      -1.58663400       1.19675500      -1.89967800      -1.64062558       1.14503447      -1.92958286
Si       3.27754000       8.17117000       8.35443000       4.04667900       4.58101600      -2.24829100       3.93607703       4.59925110      -2.41341332
Si       4.48145000       2.18337000       8.34202000      -5.72220500      -5.96162700      -4.99603400      -5.54747546      -5.97257656      -5.11515828
Si       6.36439000       4.54151000       2.12641000       2.28764700      -2.33178900       1.39384200       2.50123927      -2.11257174       1.35649080
Si       4.52267000       6.51460000       3.75633000       0.42177200       5.22743800       1.25328700       0.12104601       5.31757286       1.33577005
Si       7.68278000       0.22257000       3.11016000      -0.17295300       4.89916800      -3.86478000      -0.26816039       4.81157292      -3.95428666
Si       7.35363000       3.38410000       6.13231000       4.40786200       1.27045000       2.62604800       4.34984277       1.43976828       2.93135030
54
Lattice="8.579999685 0.0 0.0 0.0 8.579999685 0.0 0.0 0.0 8.5799996" Properties=species:S:1:pos:R:3:REF_forces:R:3:MACE_forces:R:3 config_type=Fe34B10Si10 REF_energy=-354.71875992 MACE_energy=-355.32085293876025 pbc="T T T"
Fe       0.43313000       1.19321000       2.96848000       1.47291300       2.99028000       0.61180900       1.49894578       2.96295842       0.31890137
Fe       0.91365000       1.12516000       8.09995000       2.76260400      -2.00335600       1.20968300       2.42277038      -2.03711037       1.08358199
Fe       1.17142000       2.67870000       5.23446000      -1.90323000       6.04651700       0.58026800      -1.76668620       6.09580018       0.44164055
Fe       0.60772000       3.85484000       0.87278000       2.66909500       4.89444800       4.53699300       2.52499719       4.94499309       4.16354369
Fe       1.41565000       3.44858000       3.01161000      -0.29549500       2.03729500      -0.74017400      -0.09869243       1.91389037      -0.69118970
Fe       0.04226000       2.91249000       8.09734000      -3.39897200      -2.84207300      -2.69442200      -2.78303566      -2.82498285      -2.30598789
Fe       1.33282000       7.09057000       5.22634000      -0.45239700      -1.35392500       0.92503500      -0.22435919      -1.51691096       0.96758925
Fe       2.06045000       7.92051000       0.98063000      -3.11321000      -0.30108300      -2.49280600      -3.10245381      -0.40415950      -2.37223179
Fe       2.03627000       8.24295000       3.50701000      -1.42216600       4.38122900       0.88517600      -1.45700925       4.13709378       0.67048060
Fe       0.01253000       8.02686000       7.00667000       2.58679700       0.98610200     -11.80201700       2.44372130       0.93219330     -11.87961963
Fe       3.00353000       0.57289000       6.13981000      -1.03922300       0.18357300       0.93137300      -0.82622931       0.11238359       1.01059515
Fe       3.69949000       2.65196000       7.51811000       2.76433000      -4.34399200      -3.80269000       2.59262424      -4.11875543      -3.68944150
Fe       2.94478000       6.44154000       3.03987000       7.21319500      -3.66655800      -1.17614100       7.04815037      -3.47326265      -1.01112586
Fe       2.94309000       5.75189000       6.64956000      -6.24071800      -0.74678300       3.86021800      -6.50608567      -0.64991794       3.83909721
Fe       3.71160000       8.39321000       1.86324000       2.24845700      -0.43546600       0.28887200       2.17598952      -0.17461599       0.67429356
Fe       4.07810000       8.43915000       4.32840000       2.88035800       1.28304800      -0.49181300       2.86538864       1.37554833      -0.77196789
Fe       5.57499000       0.73262000       6.31633000      -3.12774100      -1.68249800      -0.98058200      -2.83753796      -1.66344123      -0.88158356
Fe       4.70712000       1.94493000       1.65492000      -2.04675700       4.97917500      -3.67899600      -2.11294370       4.75683366      -3.51577393
Fe       4.73401000       4.18392000       1.24748000       0.71501700       1.80608500      -0.06999200       0.69627192       2.01996502      -0.11069981
Fe       4.56687000       4.22266000       4.39618000       0.73801700       3.32591500      -2.10569900       0.47671886       3.15113178      -2.19095140
Fe       4.51224000       4.61167000       7.05684000       2.53211900      -0.41024200       0.53825400       2.98691606      -0.75568826       0.49292391
Fe       6.32808000       6.81945000       4.24288000      -3.20445400      -0.33519400      -1.28892300      -2.81731133      -0.25383940      -1.12102504
Fe       6.22240000       7.17309000       0.16230000      -3.30904600      -2.75215800       1.90373500      -3.48661484      -3.06809495       2.09207606
Fe       4.54224000       7.44382000       7.03838000       0.17895600      -5.02037800      -8.74618400       0.28032968      -5.24936460      -8.95409510
Fe       4.73272000       8.55832000       8.35561000      -0.10588400       8.96287400       6.54083400      -0.17728760       9.50323217       6.22695913
Fe       7.67285000       2.82429000       2.17742000      -2.12886900      -0.76272600      -2.06587500      -2.06870682      -0.80562836      -1.98723680
Fe       6.74071000       1.77406000       4.33655000       0.47479500       0.50025500      -0.42349800       0.08086603       0.46943053      -0.49247184
Fe       7.16362000       1.61896000       6.68131000       5.11373900       1.83737400       0.70818800       4.78714306       1.69423278       0.63367274
Fe       6.73653000       4.13840000       7.84564000       0.19062300       0.32905600       3.59274800       0.09709677       0.50731733       3.64152137
Fe       6.61248000       5.35948000       2.44590000       0.96755600      -0.77403900      -0.47053600       0.84483256      -0.68678152      -0.51285682
Fe       8.39074000       4.95678000       4.82580000       0.50677700       3.21370700       1.22596300       0.58151092       3.11033906       1.10432098
Fe       6.62275000       6.29700000       6.29237000       0.91106900      -0.58785400       1.74696000       0.79003388      -0.46536029       1.60911752
Fe       8.00875000       8.14674000       2.12563000      -1.25903800      -1.94608200      -3.37077000      -0.89219686      -1.94302805      -3.40781029
Fe       7.96861000       8.10559000       4.08816000       1.24434400       0.03207600       4.40361200       0.69684068      -0.02650062       4.51202533
B        3.14587000       1.61638000       2.59818000      -3.96044800      -1.57388800      -2.24367700      -3.97476010      -1.48506113      -1.99773244
B        4.07212000       1.93087000       3.78701000       0.55534200       0.12762300      -3.25123200       0.43206526       0.09820773      -3.23739176
B        2.24412000       1.90783000       4.05913000      -1.80380000      -9.70850100      -5.48536600      -1.83918775      -9.90802584      -5.58006211
B        2.90130000       3.06657000       4.45062000       2.48509300       7.60479000      -1.50334300       2.91629690       7.33820975      -1.47821507
B        2.82587000       3.80138000       5.80651000       0.21675600       2.27927400       3.92227300       0.34716760       2.13029897       3.83576837
B        2.60929000       5.04297000       1.66311000       0.12617300      -0.77075900      -0.46531300      -0.07298079      -0.74993273      -0.35962271
B        2.47198000       4.95014000       4.32601000      -0.76752800      -1.31946700       0.35153300      -0.81004312      -1.22194508       0.30365525
B        2.73354000       7.81887000       7.66829000      -1.47869400      -0.15377200       0.00458000      -1.54067083      -0.18103672       0.17548076
B        5.68071000       2.28134000       7.79544000      -0.95924500       0.41857400       1.11780500      -0.92218181       0.34550785       1.06628473
B        7.77536000       3.70665000       3.76574000      -0.44877700      -1.48394500      -0.38974400      -0.55114027      -1.40810295      -0.03082106
Si       0.79518000       0.92195000       5.77957000      -1.66645900      -4.94136200      -1.10925300      -1.61939081      -5.12355617      -0.94509751
Si       0.88055000       4.20706000       6.73551000       1.15626000       3.58432200      -0.32349000       1.09947915       3.78646468      -0.19169989
Si       1.15025000       6.44729000       2.43826000      -7.77651300      -1.83655100      -1.54918700      -7.91716015      -1.74449293      -1.72914768
Si       2.82820000       3.29548000       0.50208000      -4.05499500       1.58525200       5.32597100      -4.13525846       1.49207672       5.27736687
Si       4.14031000       6.38272000       0.30005000      -2.16949800      -2.44928300       2.57761000      -2.20120070      -2.51385182       2.57268991
Si       3.68345000       6.43010000       5.01209000       3.98893100       0.98565200      -2.13453700       3.85839356       1.18946030      -2.07228080
Si       5.73751000       0.59059000       2.53265000       5.08228400      -4.90021500       2.23852200       5.18254836      -4.93305112       2.49636999
Si       4.51163000       2.47994000       5.36819000       2.60737700      -2.86786400       7.12589500       2.76516148      -2.66668780       6.97479260
Si       6.43436000       3.75222000       5.86206000       1.38008400       0.66155200      -3.64612400       1.58965712       0.80283026      -3.77476646
Si       8.06432000       7.52318000       8.55473000       2.36409700      -3.06603600      11.34847700       2.65920817      -2.81721240      11.10815743
18
Lattice="6.5 0.0 0.0 0.0 6.5 0.0 0.0 0.0 6.5" Properties=species:S:1:pos:R:3:REF_forces:R:3:MACE_forces:R:3 config_type=Fe12B3Si3 REF_energy=-113.87843945 MACE_energy=-113.05473308277416 pbc="T T T"
Fe       5.40234000       5.43492000       1.53729000      -1.39532100       2.04028400       0.71142300      -1.15856335       1.98378954       0.70149038
Fe       2.09750000       2.10361000       0.54730000       2.35673700      -0.33103000       1.27254800       2.52743825      -0.10016150       1.09340195
Fe       2.84360000       1.73250000       3.81271000       2.28004000      -1.18251600      -0.27344700       2.19850843      -1.04378055      -0.15370155
Fe       0.77541000       4.93717000       1.04317000       1.56096300      -3.83372900       1.76362000       1.43331502      -3.61872102       1.48868714
Fe       0.07665000       3.70431000       3.74351000      -0.75952900      -0.39175400      -2.23189700      -1.00495885      -0.41609862      -2.29622428
Fe       4.77171000       3.58949000       4.78220000      -1.99219600      -4.62409700       0.48420500      -1.80427086      -4.61460471       0.42642046
Fe       4.12430000       1.49867000       1.46476000       0.29771700      -2.38794700       0.28396300       0.31539311      -2.66527581       0.12490582
Fe       0.95387000       5.17746000       5.28728000      -0.57085000      -0.50160400      -1.80733600      -0.94421657      -0.69695587      -1.30128642
Fe       1.93602000       3.09888000       2.36598000      -0.08855100       0.43128300      -0.27209000      -0.13515174       0.61056269      -0.40105833
Fe       5.69037000       1.28357000       4.20026000      -0.40866000      -0.49067900       0.18976600      -0.66729048      -0.26958068       0.17063302
Fe       1.94321000       2.86141000       5.39871000      -0.55906500       0.73218900      -1.80086600      -0.61797261       0.80756984      -1.84551902
Fe       4.33122000       5.38124000       5.25469000      -0.73272900       4.56545400       1.52017900      -0.71207673       4.41782081       1.53544792
B        0.37598000       1.64060000       1.21420000      -3.21263000       2.85095800       0.76078000      -3.09722575       2.70611731       0.92069916
B        1.88110000       4.04794000       3.96741000       2.48956600       2.45119300      -0.32261600       2.68789679       2.29578471      -0.38893736
B        3.63878000       0.94242000       5.41981000      -0.01444500       0.67937600       0.95779200       0.15710270       0.81945777       1.05514786
Si       1.19380000       0.26963000       0.19686000       0.54051800       0.24528300      -1.93219100       0.68208806       0.02507453      -1.91822216
Si       4.57825000       3.47658000       1.16117000       0.15934200       1.26766700      -0.81102600       0.19805331       1.42630282      -0.71288197
Si       1.09558000       0.76720000       2.75124000       0.04909300      -1.52033200       1.50719200      -0.05806872      -1.66730124       1.50099739
54
Lattice="8.579999685 0.0 0.0 0.0 8.579999685 0.0 0.0 0.0 8.5799996" Properties=species:S:1:pos:R:3:REF_forces:R:3:MACE_forces:R:3 config_type=Fe34B10Si10 REF_energy=-356.0869274 MACE_energy=-356.808093776833 pbc="T T T"
Fe       0.92877000       1.08311000       2.12831000      -0.53214900      -1.15432400       0.53007800      -0.69376760      -1.25033891       0.39308405
Fe       1.12794000       0.45096000       7.37327000      -2.86345100       2.18226700       1.45805300      -2.86720097       2.02136447       1.46391813
Fe       0.91289000       3.61082000       1.96264000      -1.66570100       0.50807500      -4.76654600      -1.66133770       0.25900350      -4.75530608
Fe       0.97242000       3.25012000       3.83975000      -0.85629000      -1.23507100      -0.91491200      -1.08570838      -1.18297472      -0.41929893
Fe       1.43574000       3.84332000       5.84621000      -1.94378300      -0.72872400       4.94145300      -2.07576593      -0.52127232       4.71482129
Fe       0.45897000       5.99881000       1.32384000       1.86679900       1.45939200      -0.33976700       1.64135140       1.57905611      -0.19896262
Fe       0.05714000       6.25044000       6.01250000       0.66851500      -0.88142700       1.67028200       0.74526438      -0.74328536       1.80588365
Fe       1.87526000       7.05991000       7.27744000      -5.90957000       6.81146600       5.95768600      -5.77276354       7.19757723       5.93447640
Fe       4.21220000       0.80536000       3.81626000       0.44958900      -1.97725700       0.54591300       0.57535710      -1.91196888       0.43433520
Fe       2.64196000       0.75311000       5.88605000       0.80305000      -0.92688600      -1.50973400       0.62161421      -1.09673392      -1.56642246
Fe       2.51735000       4.27963000       7.86001000      -0.17185400       2.88247300       0.00075600       0.00133972       2.97546805       0.38215704
Fe       2.46175000       4.76211000       4.38544000       2.27245000       6.36429500      -0.60000700       2.25786727       6.39497585      -0.54959732
Fe       3.99132000       4.46692000       6.09268000      -0.21521200      -1.96607600      -0.25853400      -0.23544393      -2.14067511      -0.16018948
Fe       4.03283000       6.20484000       2.50717000       0.32509400      -1.83048700       1.07686200       0.45169969      -1.71574980       1.17512336
Fe       2.62183000       8.12097000       1.25125000      -5.45108600      -1.04608100      -0.88869000      -5.57882580      -1.02494158      -0.55518254
Fe       2.34208000       7.49949000       3.33705000      -1.45221900       0.10179900       1.96325000      -1.29713721       0.22934732       1.58499012
Fe       4.67554000       0.98699000       8.35162000       1.97529500       0.95938300       0.07305200       1.79042127       0.79480031       0.43112996
Fe       4.68615000       2.28426000       1.60336000       6.03713100       4.39249100       1.56082500       6.19694994       4.33406311       1.16166131
Fe       4.95897000       4.28949000       0.91503000       1.24258400       3.77490300      -1.07876200       0.64371038       3.42788087      -1.24135466
Fe       5.62605000       3.84953000       3.25301000      -4.56775200       3.43217100       2.09526400      -4.63352396       3.49168091       1.94505781
Fe       5.63153000       5.70233000       4.67966000       0.04558900       0.36352900      -0.74034800       0.09985823      -0.07584713      -0.61415541
Fe       5.00954000       6.14620000       6.89198000       4.51113600      -2.60361300       1.43664400       4.52020825      -2.43180440       1.37002038
Fe       5.34723000       7.32984000       0.56425000       3.41130600      -7.55812200      -7.44238600       3.31694932      -7.05426539      -7.27570814
Fe       4.57141000       8.20633000       1.67615000      -2.51651100       6.57056000       9.11650700      -2.57873071       6.19275287       8.71031782
Fe       5.67084000       7.83697000       6.02451000      -0.02983000       3.57151200       0.33120700      -0.08873396       3.74197895       0.40292890
Fe       7.65837000       1.05332000       0.64336000       1.95813700       2.93603900      -3.62028800       1.89052272       2.97520791      -3.49707372
Fe       7.23579000       1.49494000       3.62009000       0.88838800      -1.50203300       3.00240400       0.98242047      -1.61366879       3.04481511
Fe       6.96409000       1.59543000       6.70415000       0.40175100      -2.57633900      -0.54943900       0.53633704      -2.53325115      -0.51734318
Fe       6.97946000       3.05325000       2.27831000       3.01329100      -2.85779700      -7.80747400       2.49523658      -2.99879991      -7.20650723
Fe       7.05854000       3.62734000       7.13255000       0.94483300       2.42104600       2.56329500       1.05932293       2.45107833       2.50099593
Fe       7.47490000       4.49325000       0.92243000      -3.13561000       0.06366500       0.11142200      -2.92546219       0.41971843      -0.36261344
Fe       7.76499000       5.40883000       4.05655000       3.42051700      -2.49950500       1.10150300       3.49503714      -2.67972906       1.16165342
Fe       6.91686000       6.16423000       2.38917000      -4.34160700       0.52717700      -3.24358900      -4.29590169       0.65294986      -3.17779193
Fe       7.31773000       7.39473000       4.73130000      -1.41907300       3.06948200       1.38572900      -1.39381414       3.08396080       1.30544162
B        1.63947000       5.44017000       2.85377000      -1.37965300       1.67099600      -0.34434500      -1.43145494       1.76680049      -0.58704197
B        3.47444000       1.29905000       1.69513000      -6.04542900      -7.46227000      -1.52467000      -5.90367984      -7.26878574      -1.19369080
B        2.31673000       1.42955000       3.77944000      -1.85652800      -2.14982900       3.21956500      -1.77086928      -1.96783171       3.50445811
B        3.17088000       0.01260000       8.16689000      -2.14308300      -0.12737100      -3.63430700      -2.10491092       0.07297428      -3.58671370
B        2.48887000       2.23189000       2.44876000      -1.30373000       3.96631200      -0.94871100      -0.86490533       3.90270713      -1.24747699
B        3.55016000       3.21990000       0.17024000       2.13469500      -3.52588700       0.23974700       2.10963115      -3.42619271       0.17357284
B        3.12966000       3.07291000       4.24572000      -6.99085300       0.34377600      -0.16579100      -7.16626550       0.02126002      -0.35097681
B        2.38358000       5.95301000       6.34325000       2.25901800      -8.76611800      -6.31465800       2.26115939      -9.20200944      -6.52521832
B        4.46260000       2.62992000       4.23823000       7.08507900      -1.75449200       0.40993300       7.23004385      -1.70562344       0.46766634
B        7.51183000       3.59374000       3.85724000       1.49621300      -1.20378300       3.39561400       1.51130416      -1.11236934       3.33106732
Si       0.50050000       1.66927000       5.10425000      -1.02554400      -2.67263500       2.61432900      -0.86633927      -2.94658800       2.50029205
Si       0.41923000       4.50138000       8.15701000       0.82744200      -0.47721100      -2.57541600       1.07187092      -0.50500321      -2.80892223
Si       2.90131000       4.25049000       1.93860000       2.71957100       0.04497600      -0.88170100       2.94766149      -0.06074461      -1.13578924
Si       3.74353000       6.85388000       5.19884000      -1.20766000       1.80214700      -2.20114300      -1.10252390       1.93667916      -2.19412925
Si       3.54209000       6.47938000       8.21357000      -0.45014500      -1.75854100       4.24377300      -0.58053317      -2.00020968       4.43133208
Si       4.55252000       1.74669000       6.40118000       0.28733400       0.20348600      -1.69136000       0.28125338       0.18206685      -1.73044941
Si       5.87020000       3.30923000       5.41310000       1.93974000       0.55942400      -1.14043100       1.56114343       0.71873539      -1.17777360
Si       6.68392000       0.09389000       2.07850000      -2.78148600      -1.30329400       2.70552900      -2.46058723      -1.20811077       2.84361919
Si       7.30980000       7.36953000       0.08595000       4.18267400      -0.22507900      -1.67891000       4.12658521      -0.47969275      -1.66988958
Si       8.41387000       7.50606000       2.97540000       5.08859000       1.78741200      -0.88875800       5.01406607       2.03437962      -0.86924040
54
Lattice="8.579999685 0.0 0.0 0.0 8.579999685 0.0 0.0 0.0 8.5799996" Properties=species:S:1:pos:R:3:REF_forces:R:3:MACE_forces:R:3 config_type=Fe34B10Si10 REF_energy=-359.84864784 MACE_energy=-360.2970371415428 pbc="T T T"
Fe       0.39531000       2.37288000       0.87042000       3.27925500       2.43832800      -1.60261100       3.23085212       2.57141082      -1.73056419
Fe       0.75383000       1.65209000       3.11094000       1.30783500      -0.34615400      -0.09267000       1.25830009      -0.77802760       0.23895436
Fe       1.33201000       3.79282000       7.26231000      -2.40668100      -1.18131200       0.32245500      -2.55129976      -1.05870792       0.17016526
Fe       0.64436000       4.41396000       2.97573000       2.42004200      -2.26182600       0.38963900       2.47895616      -2.04247763       0.21708913
Fe       0.14751000       6.42079000       3.51005000      -3.07002100       1.32407200      -2.30638400      -3.11559372       1.38007074      -2.54888055