54
Lattice="8.579999685 0.0 0.0 0.0 8.579999685 0.0 0.0 0.0 8.5799996" Properties=species:S:1:pos:R:3:REF_forces:R:3:MACE_forces:R:3 config_type=Fe34B10Si10 REF_energy=-352.89092233 MACE_energy=-352.08294901445356 pbc="T T T"
Fe       1.46495000       0.71583000       1.12880000       3.73230100      -3.41607500      -3.76209700       3.53279713      -3.07478155      -3.13327815
Fe       0.56244000       2.07917000       1.96452000      -3.31290700       4.06628900       2.54508600      -3.55579351       3.88159276       1.96282590
Fe       0.86636000       2.12990000       5.00906000     -10.85567700      -2.87102900      12.20968700     -10.31887971      -2.59414339      12.01846126
Fe       0.24697000       2.61233000       7.83061000      -0.37811800      -2.03816900      -0.08744800      -0.38922661      -2.50201029       0.20908412
Fe       0.35437000       4.66395000       8.16447000      -1.30300600       1.62250000       0.84662400      -1.41671204       2.21702187       0.93794788
Fe       0.83543000       8.00840000       3.01492000       5.54921000      -2.55787300       0.52513800       5.59036978      -2.85538268       1.04571260
Fe       2.03952000       7.84431000       6.63062000      -4.28706100       1.82495200      -1.68802900      -4.44563908       2.22154851      -1.70865878
Fe       3.34318000       0.11090000       2.96052000      -0.46571400      -0.35056300       0.37864800      -0.53683781      -0.11635812       0.72075501
Fe       3.26317000       2.11539000       1.48699000      -3.47884800      -0.03222100       0.61542300      -3.30931822      -0.02733174      -0.38084404
Fe       4.14313000       2.75755000       3.31065000      -0.71378000      -2.73118300       1.93004800      -0.21560321      -2.11022888       1.73315042
Fe       2.55051000       2.67374000       7.19710000      -2.55215900      -0.93589000       1.77261600      -2.33218719      -0.93717697       1.85177943
Fe       3.61327000       2.86500000       5.46497000       1.55763200       0.20514300      -0.56676300       1.48297175       0.47200657      -0.79166427
Fe       2.62400000       4.72550000       1.39174000      -1.08585200      -1.19598700       0.59645400      -1.03164294      -1.16813564       0.61208874
Fe       2.20317000       5.21693000       3.87451000      -3.92870900      -4.38103900      -4.92199500      -3.82750826      -4.57724382      -5.61778725
Fe       3.93082000       4.37819000       8.08226000       1.07616800       0.44807800      -0.99700400       1.12760715       0.43598569      -0.34600534
Fe       2.44961000       7.01753000       1.08943000       0.32119000      -1.55635000       3.27006500       0.55445054      -1.27693307       2.74172222
Fe       3.02500000       6.15780000       5.08193000      -1.08486800       1.64126100       3.95415400      -0.13092935       1.71457143       4.49517315
Fe       5.77712000       0.44616000       0.16142000      -2.43333700       0.07175000       4.13474700      -2.01803888       0.26247183       4.26226091
Fe       5.66964000       0.14892000       2.95259000      -3.67617900       1.90971100       0.12919700      -3.61521981       1.97575736       0.06400421
Fe       5.39484000       2.66317000       1.55162000       4.08183700      -3.39937100       3.88213200       3.89750999      -3.46657120       4.02513215
Fe       5.91309000       3.40423000       8.31953000       8.90196200       5.48305700      -2.72562400       8.21393787       5.47975755      -3.05034607
Fe       4.96126000       4.63305000       3.41410000      -3.60269200      -2.00302700       2.25051900      -3.73350293      -1.96277272       3.30766584
Fe       5.11347000       6.81217000       1.78872000      -0.87770500       0.06714300      -1.61156800      -0.78404572       0.15160255      -1.89238043
Fe       5.00950000       6.45991000       8.24507000      -2.30619500      -0.19808200      -1.52355700      -2.31895480      -0.49048100      -1.92066184
Fe       4.64263000       7.71190000       5.75084000       2.50156800       4.23919200      -1.55456800       2.79746892       4.44462235      -1.46157646
Fe       7.32285000       0.33022000       5.03535000      -0.99210900      -0.59745100       4.73628300      -0.66277836      -0.44881163       4.42561865
Fe       6.75330000       1.32958000       7.05071000       0.53851300       2.01290400       0.36400700       0.50953633       1.36724458       0.50556779
Fe       6.82686000       2.53028000       3.66692000      -0.08907100      -0.12987400      -0.26318300       0.27795602      -0.13648471      -0.54873481
Fe       6.83617000       5.56618000       0.59386000       1.74434500       1.47371700      -3.32847200       1.39009967       0.94359865      -3.24764895
Fe       8.27091000       4.29855000       2.87718000       3.23308900       0.33980500       1.37352500       3.05323443       0.00510142       1.26231517
Fe       6.58774000       4.90718000       4.97515000      -1.87594500       0.58060600      -0.05143700      -2.37191073       1.44112508      -1.39582568
Fe       6.86773000       6.79187000       3.27473000       1.52763600      -2.76254700       0.67579100       1.38741496      -2.51779242       0.55102942
Fe       8.09083000       8.29691000       0.84396000      -4.18921500      -1.95965200       9.56442300      -3.75825619      -1.41763968       9.88380403
Fe       6.62133000       7.67903000       7.47205000      -3.65417600       1.51975600      -3.32990400      -4.61004132       1.49716728      -4.06813725
B        3.45077000       6.81738000       6.75435000       2.04131500      -2.79808300       3.80923700       2.23736690      -3.12803618       3.90502942
B        4.67436000       1.10514000       4.73414000       0.75036200       0.95391600      -0.52852700       0.25839093       0.14685572      -0.33447628
B        6.18153000       2.20088000       5.47737000      -4.49435700      -3.20609500      -2.27763700      -4.38415140      -2.67668856      -2.38456701
B        5.08133000       4.10197000       6.35983000       0.35152900       0.25548900      -0.65354500       0.36410229       0.15609886      -0.23527542
B        4.48663000       4.29393000       1.40792000      -0.27448100       1.04603100       0.21283300      -0.47523342       1.06884314      -0.00502813
B        4.96286000       5.88068000       6.14703000       0.60492000      -1.85032800       0.29314600       0.13337640      -1.51108902       0.53000688
B        8.17242000       5.65216000       5.55863000       1.00443800       0.65677900      -0.69824300       2.35431297      -0.02445051      -0.63496182
B        7.98743000       6.92663000       6.60530000       5.86774900       2.58695800      -4.05103700       5.26565921       2.55802988      -2.95769297
B        7.10769000       5.72812000       6.91109000      -2.33709700      -3.34606800       1.34633400      -2.47167535      -3.40815362       1.68464403
B        7.81665000       6.81498000       8.33858000       5.04350100      -2.41043400       0.97359300       5.10801428      -2.97466614       0.42598030
Si       0.06983000       0.14925000       7.74742000       4.12649000       2.60901100      -8.87608100       4.22672434       2.95223817      -8.89130391
Si       1.93337000       2.41223000       3.74634000      10.14534600       2.98113100     -12.18526000       9.61409261       2.73934284     -11.32400298
Si       0.75978000       6.02813000       1.69309000      -4.13401100      -0.74920300       1.02787300      -3.56310642      -1.15954338       0.80851533
Si       2.22023000       5.10313000       7.16329000      -1.58663400       1.19675500      -1.89967800      -1.60298036       1.15206576      -1.80351620
Si       3.27754000       8.17117000       8.35443000       4.04667900       4.58101600      -2.24829100       3.67865133       4.50845848      -1.79297174
Si       4.48145000       2.18337000       8.34202000      -5.72220500      -5.96162700      -4.99603400      -5.80946212      -5.93331387      -4.92467564
Si       6.36439000       4.54151000       2.12641000       2.28764700      -2.33178900       1.39384200       2.27818326      -2.14690966       1.03986075
Si       4.52267000       6.51460000       3.75633000       0.42177200       5.22743800       1.25328700       0.41743470       5.05777261       0.79600912
Si       7.68278000       0.22257000       3.11016000      -0.17295300       4.89916800      -3.86478000      -0.34454395       4.46037786      -3.88236369
Si       7.35363000       3.38410000       6.13231000       4.40786200       1.27045000       2.62604800       4.28251592       1.33187166       2.92824039
54
Lattice="8.579999685 0.0 0.0 0.0 8.579999685 0.0 0.0 0.0 8.5799996" Properties=species:S:1:pos:R:3:REF_forces:R:3:MACE_forces:R:3 config_type=Fe34B10Si10 REF_energy=-354.71875992 MACE_energy=-352.09249173763214 pbc="T T T"
Fe       0.43313000       1.19321000       2.96848000       1.47291300       2.99028000       0.61180900       1.88390807       2.63527415       0.57012475
Fe       0.91365000       1.12516000       8.09995000       2.76260400      -2.00335600       1.20968300       2.73038165      -1.77006621       1.52281155
Fe       1.17142000       2.67870000       5.23446000      -1.90323000       6.04651700       0.58026800      -2.95303342       6.60004624       0.53275352
Fe       0.60772000       3.85484000       0.87278000       2.66909500       4.89444800       4.53699300       2.57197099       5.42417286       4.29517430
Fe       1.41565000       3.44858000       3.01161000      -0.29549500       2.03729500      -0.74017400       0.27934638       1.81275674      -0.67773536
Fe       0.04226000       2.91249000       8.09734000      -3.39897200      -2.84207300      -2.69442200      -3.82073984      -3.30982763      -3.31545611
Fe       1.33282000       7.09057000       5.22634000      -0.45239700      -1.35392500       0.92503500       0.02045825      -1.33951651       0.69041061
Fe       2.06045000       7.92051000       0.98063000      -3.11321000      -0.30108300      -2.49280600      -3.71000413      -0.41737377      -2.70186125
Fe       2.03627000       8.24295000       3.50701000      -1.42216600       4.38122900       0.88517600      -1.64315992       4.03412329       0.63358005
Fe       0.01253000       8.02686000       7.00667000       2.58679700       0.98610200     -11.80201700       2.07305915       0.49325826     -11.77709257
Fe       3.00353000       0.57289000       6.13981000      -1.03922300       0.18357300       0.93137300      -0.56874900       0.52561485       0.75318505
Fe       3.69949000       2.65196000       7.51811000       2.76433000      -4.34399200      -3.80269000       1.77203847      -3.98617742      -3.89845484
Fe       2.94478000       6.44154000       3.03987000       7.21319500      -3.66655800      -1.17614100       7.42094142      -2.95046724      -0.55438988
Fe       2.94309000       5.75189000       6.64956000      -6.24071800      -0.74678300       3.86021800      -6.03018805      -0.79855687       4.55625698
Fe       3.71160000       8.39321000       1.86324000       2.24845700      -0.43546600       0.28887200       3.14757273      -0.16731256       1.02765639
Fe       4.07810000       8.43915000       4.32840000       2.88035800       1.28304800      -0.49181300       2.69758959       1.50371595      -0.65840634
Fe       5.57499000       0.73262000       6.31633000      -3.12774100      -1.68249800      -0.98058200      -2.86810036      -2.24947557      -1.61894348
Fe       4.70712000       1.94493000       1.65492000      -2.04675700       4.97917500      -3.67899600      -1.04377277       4.62078579      -4.07300936
Fe       4.73401000       4.18392000       1.24748000       0.71501700       1.80608500      -0.06999200       0.70714461       1.70018502       0.08728621
Fe       4.56687000       4.22266000       4.39618000       0.73801700       3.32591500      -2.10569900       0.33570016       4.35099131      -2.57296010
Fe       4.51224000       4.61167000       7.05684000       2.53211900      -0.41024200       0.53825400       2.81282643      -0.21749032       0.37924536
Fe       6.32808000       6.81945000       4.24288000      -3.20445400      -0.33519400      -1.28892300      -2.63537510      -0.46523556      -1.21994171
Fe       6.22240000       7.17309000       0.16230000      -3.30904600      -2.75215800       1.90373500      -2.95093890      -3.02199704       2.00404728
Fe       4.54224000       7.44382000       7.03838000       0.17895600      -5.02037800      -8.74618400      -0.03296441      -5.04651235      -7.90837282
Fe       4.73272000       8.55832000       8.35561000      -0.10588400       8.96287400       6.54083400      -1.13351630       8.44421218       5.44192888
Fe       7.67285000       2.82429000       2.17742000      -2.12886900      -0.76272600      -2.06587500      -2.38098342      -0.85836789      -1.95195646
Fe       6.74071000       1.77406000       4.33655000       0.47479500       0.50025500      -0.42349800       0.07623276       0.63605933      -0.62010368
Fe       7.16362000       1.61896000       6.68131000       5.11373900       1.83737400       0.70818800       5.02006036       1.87783520       1.03215604
Fe       6.73653000       4.13840000       7.84564000       0.19062300       0.32905600       3.59274800       0.09599882       1.27943997       3.69991672
Fe       6.61248000       5.35948000       2.44590000       0.96755600      -0.77403900      -0.47053600       0.56358326      -0.59880858      -0.29741006
Fe       8.39074000       4.95678000       4.82580000       0.50677700       3.21370700       1.22596300       0.79048675       2.78801029       1.10546533
Fe       6.62275000       6.29700000       6.29237000       0.91106900      -0.58785400       1.74696000       0.65971735      -0.57757736       1.74741000
Fe       8.00875000       8.14674000       2.12563000      -1.25903800      -1.94608200      -3.37077000      -1.42455895      -1.58716560      -3.84760532
Fe       7.96861000       8.10559000       4.08816000       1.24434400       0.03207600       4.40361200       0.99721096       0.30399900       4.64352087
B        3.14587000       1.61638000       2.59818000      -3.96044800      -1.57388800      -2.24367700      -4.05661841      -0.98583824      -1.53338217
B        4.07212000       1.93087000       3.78701000       0.55534200       0.12762300      -3.25123200       1.14161544      -1.16165000      -3.58559085
B        2.24412000       1.90783000       4.05913000      -1.80380000      -9.70850100      -5.48536600      -2.50616109     -11.07611746      -5.05907090
B        2.90130000       3.06657000       4.45062000       2.48509300       7.60479000      -1.50334300       3.09685559       7.60578356      -1.82336838
B        2.82587000       3.80138000       5.80651000       0.21675600       2.27927400       3.92227300       0.67198734       2.87681115       3.61883983
B        2.60929000       5.04297000       1.66311000       0.12617300      -0.77075900      -0.46531300      -0.06320426      -0.82507928      -0.54266985
B        2.47198000       4.95014000       4.32601000      -0.76752800      -1.31946700       0.35153300      -0.77771185      -1.57746802       0.64545416
B        2.73354000       7.81887000       7.66829000      -1.47869400      -0.15377200       0.00458000      -0.91952078      -0.15139746       0.15631080
B        5.68071000       2.28134000       7.79544000      -0.95924500       0.41857400       1.11780500      -0.42044090      -0.03939972       0.90069019
B        7.77536000       3.70665000       3.76574000      -0.44877700      -1.48394500      -0.38974400      -0.67477385      -1.39640323      -0.24363304
Si       0.79518000       0.92195000       5.77957000      -1.66645900      -4.94136200      -1.10925300      -1.31591472      -4.80968649      -0.89374995
Si       0.88055000       4.20706000       6.73551000       1.15626000       3.58432200      -0.32349000       1.06005710       3.58167167       0.23474562
Si       1.15025000       6.44729000       2.43826000      -7.77651300      -1.83655100      -1.54918700      -8.05012111      -1.70563409      -1.95329075
Si       2.82820000       3.29548000       0.50208000      -4.05499500       1.58525200       5.32597100      -3.61378841       1.31363830       4.80577461
Si       4.14031000       6.38272000       0.30005000      -2.16949800      -2.44928300       2.57761000      -2.23551851      -2.25757799       2.11182507
Si       3.68345000       6.43010000       5.01209000       3.98893100       0.98565200      -2.13453700       3.83085631       1.23948034      -2.17741653
Si       5.73751000       0.59059000       2.53265000       5.08228400      -4.90021500       2.23852200       4.65763496      -4.53284041       2.84543478
Si       4.51163000       2.47994000       5.36819000       2.60737700      -2.86786400       7.12589500       2.87541327      -2.80179677       7.29982516
Si       6.43436000       3.75222000       5.86206000       1.38008400       0.66155200      -3.64612400       1.01690159       0.41124884      -3.24513096
Si       8.06432000       7.52318000       8.55473000       2.36409700      -3.06603600      11.34847700       2.82230871      -3.37629666      11.40917261
18
Lattice="6.5 0.0 0.0 0.0 6.5 0.0 0.0 0.0 6.5" Properties=species:S:1:pos:R:3:REF_forces:R:3:MACE_forces:R:3 config_type=Fe12B3Si3 REF_energy=-113.87843945 MACE_energy=-120.67201289079534 pbc="T T T"
Fe       5.40234000       5.43492000       1.53729000      -1.39532100       2.04028400       0.71142300      -2.53559971       2.59990708       1.12020207
Fe       2.09750000       2.10361000       0.54730000       2.35673700      -0.33103000       1.27254800       2.89874191      -0.69170536       2.71857310
Fe       2.84360000       1.73250000       3.81271000       2.28004000      -1.18251600      -0.27344700       2.28285120      -1.30459033      -0.44002652
Fe       0.77541000       4.93717000       1.04317000       1.56096300      -3.83372900       1.76362000       2.37862784      -3.90480702       1.61742770
Fe       0.07665000       3.70431000       3.74351000      -0.75952900      -0.39175400      -2.23189700      -1.15885183      -0.40518954      -2.18641715
Fe       4.77171000       3.58949000       4.78220000      -1.99219600      -4.62409700       0.48420500      -1.40634008      -4.34922695       0.40827468
Fe       4.12430000       1.49867000       1.46476000       0.29771700      -2.38794700       0.28396300       0.49265310      -3.52215426       0.85577082
Fe       0.95387000       5.17746000       5.28728000      -0.57085000      -0.50160400      -1.80733600      -0.60063247       0.07863554      -1.35243379
Fe       1.93602000       3.09888000       2.36598000      -0.08855100       0.43128300      -0.27209000      -0.18962779       1.07393675      -0.78452287
Fe       5.69037000       1.28357000       4.20026000      -0.40866000      -0.49067900       0.18976600      -0.63089456      -0.48472777       0.28537587
Fe       1.94321000       2.86141000       5.39871000      -0.55906500       0.73218900      -1.80086600      -0.99536947       1.90375401      -2.47854007
Fe       4.33122000       5.38124000       5.25469000      -0.73272900       4.56545400       1.52017900      -0.76374143       4.51535375       1.24912016
B        0.37598000       1.64060000       1.21420000      -3.21263000       2.85095800       0.76078000      -3.36670677       2.69796968       0.12969043
B        1.88110000       4.04794000       3.96741000       2.48956600       2.45119300      -0.32261600       2.65045310       2.24365489      -0.37568167
B        3.63878000       0.94242000       5.41981000      -0.01444500       0.67937600       0.95779200       0.46879779       0.00553789       0.75270086
Si       1.19380000       0.26963000       0.19686000       0.54051800       0.24528300      -1.93219100       0.52061699      -0.23323066      -2.11885765
Si       4.57825000       3.47658000       1.16117000       0.15934200       1.26766700      -0.81102600      -0.18105702       1.46973800      -0.92627385
Si       1.09558000       0.76720000       2.75124000       0.04909300      -1.52033200       1.50719200       0.13607919      -1.69285570       1.52561787
54
Lattice="8.579999685 0.0 0.0 0.0 8.579999685 0.0 0.0 0.0 8.5799996" Properties=species:S:1:pos:R:3:REF_forces:R:3:MACE_forces:R:3 config_type=Fe34B10Si10 REF_energy=-356.0869274 MACE_energy=-354.2262009478092 pbc="T T T"
Fe       0.92877000       1.08311000       2.12831000      -0.53214900      -1.15432400       0.53007800      -0.52807343      -0.62563213       0.61362788
Fe       1.12794000       0.45096000       7.37327000      -2.86345100       2.18226700       1.45805300      -2.54567240       2.29609659       1.71278262
Fe       0.91289000       3.61082000       1.96264000      -1.66570100       0.50807500      -4.76654600      -2.41066173       0.08488801      -4.62105738
Fe       0.97242000       3.25012000       3.83975000      -0.85629000      -1.23507100      -0.91491200      -0.33966386      -0.74766348      -0.12082159
Fe       1.43574000       3.84332000       5.84621000      -1.94378300      -0.72872400       4.94145300      -1.75983994      -0.88027641       4.22085018
Fe       0.45897000       5.99881000       1.32384000       1.86679900       1.45939200      -0.33976700       2.12318881       1.86223844      -0.24943488
Fe       0.05714000       6.25044000       6.01250000       0.66851500      -0.88142700       1.67028200       1.17439577      -1.15751781       1.81863798
Fe       1.87526000       7.05991000       7.27744000      -5.90957000       6.81146600       5.95768600      -5.76186992       6.97421000       5.24949402
Fe       4.21220000       0.80536000       3.81626000       0.44958900      -1.97725700       0.54591300       0.37623682      -1.62123855      -0.06258708
Fe       2.64196000       0.75311000       5.88605000       0.80305000      -0.92688600      -1.50973400       0.43598926      -0.59765833      -1.53407336
Fe       2.51735000       4.27963000       7.86001000      -0.17185400       2.88247300       0.00075600      -0.46317270       2.44254393      -0.59768283
Fe       2.46175000       4.76211000       4.38544000       2.27245000       6.36429500      -0.60000700       2.24092719       5.57675447      -0.96626146
Fe       3.99132000       4.46692000       6.09268000      -0.21521200      -1.96607600      -0.25853400      -0.59586843      -2.08590839      -0.64396473
Fe       4.03283000       6.20484000       2.50717000       0.32509400      -1.83048700       1.07686200       0.50132429      -1.84526770       0.82116508
Fe       2.62183000       8.12097000       1.25125000      -5.45108600      -1.04608100      -0.88869000      -4.67700770      -1.29839145      -0.70340507
Fe       2.34208000       7.49949000       3.33705000      -1.45221900       0.10179900       1.96325000      -1.33912830       0.18734533       1.95721820
Fe       4.67554000       0.98699000       8.35162000       1.97529500       0.95938300       0.07305200       2.33192794       1.03971433       0.46116802
Fe       4.68615000       2.28426000       1.60336000       6.03713100       4.39249100       1.56082500       7.18961821       4.61740249       1.32738112
Fe       4.95897000       4.28949000       0.91503000       1.24258400       3.77490300      -1.07876200       1.67578556       3.50801866      -1.40158594
Fe       5.62605000       3.84953000       3.25301000      -4.56775200       3.43217100       2.09526400      -4.52528381       3.54473285       1.08766133
Fe       5.63153000       5.70233000       4.67966000       0.04558900       0.36352900      -0.74034800      -0.59046930      -0.15863577      -0.55814421
Fe       5.00954000       6.14620000       6.89198000       4.51113600      -2.60361300       1.43664400       3.64351369      -2.42446836       1.37576194
Fe       5.34723000       7.32984000       0.56425000       3.41130600      -7.55812200      -7.44238600       3.16964931      -6.79238975      -7.19076914
Fe       4.57141000       8.20633000       1.67615000      -2.51651100       6.57056000       9.11650700      -2.88380149       5.94529315       8.94185364
Fe       5.67084000       7.83697000       6.02451000      -0.02983000       3.57151200       0.33120700      -0.03110521       4.38770313       0.44182307
Fe       7.65837000       1.05332000       0.64336000       1.95813700       2.93603900      -3.62028800       1.63446128       2.72453773      -3.70711287
Fe       7.23579000       1.49494000       3.62009000       0.88838800      -1.50203300       3.00240400       0.47547615      -1.23609152       3.16762912
Fe       6.96409000       1.59543000       6.70415000       0.40175100      -2.57633900      -0.54943900       0.41146097      -2.99823343      -0.47983901
Fe       6.97946000       3.05325000       2.27831000       3.01329100      -2.85779700      -7.80747400       2.54843259      -3.93055339      -6.38634582
Fe       7.05854000       3.62734000       7.13255000       0.94483300       2.42104600       2.56329500       0.96483236       2.82985978       2.17567556
Fe       7.47490000       4.49325000       0.92243000      -3.13561000       0.06366500       0.11142200      -3.24734235       0.80251922      -0.81281865
Fe       7.76499000       5.40883000       4.05655000       3.42051700      -2.49950500       1.10150300       3.55902589      -2.35650519       0.83819359
Fe       6.91686000       6.16423000       2.38917000      -4.34160700       0.52717700      -3.24358900      -4.77487546       0.19449609      -2.81101054
Fe       7.31773000       7.39473000       4.73130000      -1.41907300       3.06948200       1.38572900      -1.13932669       3.35494383       0.93343987
B        1.63947000       5.44017000       2.85377000      -1.37965300       1.67099600      -0.34434500      -1.52860911       1.61153354      -0.27961789
B        3.47444000       1.29905000       1.69513000      -6.04542900      -7.46227000      -1.52467000      -5.65365710      -7.51683030      -1.15628651
B        2.31673000       1.42955000       3.77944000      -1.85652800      -2.14982900       3.21956500      -1.43639826      -2.00524558       3.14719145
B        3.17088000       0.01260000       8.16689000      -2.14308300      -0.12737100      -3.63430700      -1.74292748      -0.44751443      -3.07842675
B        2.48887000       2.23189000       2.44876000      -1.30373000       3.96631200      -0.94871100      -1.24800196       4.11841629      -0.33508106
B        3.55016000       3.21990000       0.17024000       2.13469500      -3.52588700       0.23974700       1.69898799      -3.41956563       0.72031006
B        3.12966000       3.07291000       4.24572000      -6.99085300       0.34377600      -0.16579100      -6.75037797       0.06984823       0.10873086
B        2.38358000       5.95301000       6.34325000       2.25901800      -8.76611800      -6.31465800       2.48700558      -9.30649539      -6.44207637
B        4.46260000       2.62992000       4.23823000       7.08507900      -1.75449200       0.40993300       5.87992870      -1.95995163       0.11987881
B        7.51183000       3.59374000       3.85724000       1.49621300      -1.20378300       3.39561400       1.56287229      -0.94258404       3.48768273
Si       0.50050000       1.66927000       5.10425000      -1.02554400      -2.67263500       2.61432900      -0.68222647      -2.64225592       2.37795488
Si       0.41923000       4.50138000       8.15701000       0.82744200      -0.47721100      -2.57541600       0.94411031      -0.14974932      -2.73040688
Si       2.90131000       4.25049000       1.93860000       2.71957100       0.04497600      -0.88170100       2.69589323       0.13521001      -0.65266601
Si       3.74353000       6.85388000       5.19884000      -1.20766000       1.80214700      -2.20114300      -1.23018307       1.51503411      -1.90300379
Si       3.54209000       6.47938000       8.21357000      -0.45014500      -1.75854100       4.24377300      -0.39988120      -1.71934926       4.55496751
Si       4.55252000       1.74669000       6.40118000       0.28733400       0.20348600      -1.69136000      -0.16198932       0.17300228      -1.43871284
Si       5.87020000       3.30923000       5.41310000       1.93974000       0.55942400      -1.14043100       1.98331690       0.99482383      -0.78654342
Si       6.68392000       0.09389000       2.07850000      -2.78148600      -1.30329400       2.70552900      -2.49857259      -1.19062972       2.47629125
Si       7.30980000       7.36953000       0.08595000       4.18267400      -0.22507900      -1.67891000       4.25082624      -0.91880933      -1.78674796
Si       8.41387000       7.50606000       2.97540000       5.08859000       1.78741200      -0.88875800       4.98679992       1.98424590      -0.70088672
54
Lattice="8.579999685 0.0 0.0 0.0 8.579999685 0.0 0.0 0.0 8.5799996" Properties=species:S:1:pos:R:3:REF_forces:R:3:MACE_forces:R:3 config_type=Fe34B10Si10 REF_energy=-359.84864784 MACE_energy=-358.182588752439 pbc="T T T"
Fe       0.39531000       2.37288000       0.87042000       3.27925500       2.43832800      -1.60261100       2.95993405       2.67153371      -1.56369321
Fe       0.75383000       1.65209000       3.11094000       1.30783500      -0.34615400      -0.09267000       0.68170641      -0.63186792       0.21520189
Fe       1.33201000       3.79282000       7.26231000      -2.40668100      -1.18131200       0.32245500      -2.05416184      -0.72489969       0.84561393
Fe       0.64436000       4.41396000       2.97573000       2.42004200      -2.26182600       0.38963900       2.10804696      -2.16428388       0.56421013
Fe       0.14751000       6.42079000       3.51005000      -3.07002100       1.32407200      -2.30638400      -2.95971070       1.11291303      -2.36059050