54
Lattice="8.579999685 0.0 0.0 0.0 8.579999685 0.0 0.0 0.0 8.5799996" Properties=species:S:1:pos:R:3:REF_forces:R:3:MACE_forces:R:3 config_type=Fe34B10Si10 REF_energy=-352.89092233 MACE_energy=-353.29978113163475 pbc="T T T"
Fe       1.46495000       0.71583000       1.12880000       3.73230100      -3.41607500      -3.76209700       3.68726759      -3.54199067      -3.54735957
Fe       0.56244000       2.07917000       1.96452000      -3.31290700       4.06628900       2.54508600      -3.21713805       3.97908982       2.35561387
Fe       0.86636000       2.12990000       5.00906000     -10.85567700      -2.87102900      12.20968700     -10.95171418      -2.95113397      12.22073711
Fe       0.24697000       2.61233000       7.83061000      -0.37811800      -2.03816900      -0.08744800      -0.42429363      -1.91707246       0.09190855
Fe       0.35437000       4.66395000       8.16447000      -1.30300600       1.62250000       0.84662400      -1.33111897       1.61005924       0.77061075
Fe       0.83543000       8.00840000       3.01492000       5.54921000      -2.55787300       0.52513800       5.70738635      -2.53124982       0.37898268
Fe       2.03952000       7.84431000       6.63062000      -4.28706100       1.82495200      -1.68802900      -4.07169905       1.96049477      -1.65189771
Fe       3.34318000       0.11090000       2.96052000      -0.46571400      -0.35056300       0.37864800      -0.53206148      -0.22038068       0.47417114
Fe       3.26317000       2.11539000       1.48699000      -3.47884800      -0.03222100       0.61542300      -3.42569452      -0.29881577       0.16968518
Fe       4.14313000       2.75755000       3.31065000      -0.71378000      -2.73118300       1.93004800      -0.61229686      -2.38776531       1.84590232
Fe       2.55051000       2.67374000       7.19710000      -2.55215900      -0.93589000       1.77261600      -2.29957861      -1.15071217       1.71259159
Fe       3.61327000       2.86500000       5.46497000       1.55763200       0.20514300      -0.56676300       1.45937213       0.26957535      -0.27060771
Fe       2.62400000       4.72550000       1.39174000      -1.08585200      -1.19598700       0.59645400      -1.35078413      -1.02019411       0.70184700
Fe       2.20317000       5.21693000       3.87451000      -3.92870900      -4.38103900      -4.92199500      -3.86076217      -4.41628269      -4.98872775
Fe       3.93082000       4.37819000       8.08226000       1.07616800       0.44807800      -0.99700400       1.03651732       0.29834471      -0.91053077
Fe       2.44961000       7.01753000       1.08943000       0.32119000      -1.55635000       3.27006500       0.45270872      -1.64772663       3.25854530
Fe       3.02500000       6.15780000       5.08193000      -1.08486800       1.64126100       3.95415400      -0.64282805       1.66203535       4.06019458
Fe       5.77712000       0.44616000       0.16142000      -2.43333700       0.07175000       4.13474700      -2.46841031       0.40348036       4.21776662
Fe       5.66964000       0.14892000       2.95259000      -3.67617900       1.90971100       0.12919700      -3.63005236       1.65288306       0.31236937
Fe       5.39484000       2.66317000       1.55162000       4.08183700      -3.39937100       3.88213200       4.01487518      -3.63610833       4.02351277
Fe       5.91309000       3.40423000       8.31953000       8.90196200       5.48305700      -2.72562400       8.73970370       5.48058763      -2.72538566
Fe       4.96126000       4.63305000       3.41410000      -3.60269200      -2.00302700       2.25051900      -3.72902562      -2.22268461       2.36529715
Fe       5.11347000       6.81217000       1.78872000      -0.87770500       0.06714300      -1.61156800      -0.70449460       0.07374896      -1.55887039
Fe       5.00950000       6.45991000       8.24507000      -2.30619500      -0.19808200      -1.52355700      -2.26465370       0.02765416      -1.66802449
Fe       4.64263000       7.71190000       5.75084000       2.50156800       4.23919200      -1.55456800       2.61798908       4.24525899      -1.58888531
Fe       7.32285000       0.33022000       5.03535000      -0.99210900      -0.59745100       4.73628300      -1.02324753      -0.38914801       4.82327682
Fe       6.75330000       1.32958000       7.05071000       0.53851300       2.01290400       0.36400700       0.56692503       1.82364632       0.27287841
Fe       6.82686000       2.53028000       3.66692000      -0.08907100      -0.12987400      -0.26318300      -0.07174483      -0.22216823      -0.24323712
Fe       6.83617000       5.56618000       0.59386000       1.74434500       1.47371700      -3.32847200       1.80304755       1.61835522      -3.38441223
Fe       8.27091000       4.29855000       2.87718000       3.23308900       0.33980500       1.37352500       3.21779597       0.24042510       1.34348269
Fe       6.58774000       4.90718000       4.97515000      -1.87594500       0.58060600      -0.05143700      -2.14580936       0.59279478      -0.27048385
Fe       6.86773000       6.79187000       3.27473000       1.52763600      -2.76254700       0.67579100       1.40068497      -2.40540603       0.41081077
Fe       8.09083000       8.29691000       0.84396000      -4.18921500      -1.95965200       9.56442300      -4.22735079      -2.33404580       9.66952817
Fe       6.62133000       7.67903000       7.47205000      -3.65417600       1.51975600      -3.32990400      -3.88734901       1.23436098      -3.52062597
B        3.45077000       6.81738000       6.75435000       2.04131500      -2.79808300       3.80923700       1.90388551      -2.69533805       3.92461013
B        4.67436000       1.10514000       4.73414000       0.75036200       0.95391600      -0.52852700       0.82248833       0.86808915      -0.46369988
B        6.18153000       2.20088000       5.47737000      -4.49435700      -3.20609500      -2.27763700      -4.70848020      -3.15167532      -2.46122435
B        5.08133000       4.10197000       6.35983000       0.35152900       0.25548900      -0.65354500       0.58405909       0.34079014      -0.66055855
B        4.48663000       4.29393000       1.40792000      -0.27448100       1.04603100       0.21283300      -0.27064160       1.21388517       0.16482404
B        4.96286000       5.88068000       6.14703000       0.60492000      -1.85032800       0.29314600       0.65179292      -1.91987623       0.12141998
B        8.17242000       5.65216000       5.55863000       1.00443800       0.65677900      -0.69824300       1.03262432       0.76655302      -0.34808574
B        7.98743000       6.92663000       6.60530000       5.86774900       2.58695800      -4.05103700       5.84736082       2.53627916      -3.74416006
B        7.10769000       5.72812000       6.91109000      -2.33709700      -3.34606800       1.34633400      -2.35009212      -3.52104141       1.28314448
B        7.81665000       6.81498000       8.33858000       5.04350100      -2.41043400       0.97359300       5.18220032      -2.41490490       0.76208358
Si       0.06983000       0.14925000       7.74742000       4.12649000       2.60901100      -8.87608100       3.95368090       2.63114470      -8.86797828
Si       1.93337000       2.41223000       3.74634000      10.14534600       2.98113100     -12.18526000      10.23361963       3.11040729     -12.00630455
Si       0.75978000       6.02813000       1.69309000      -4.13401100      -0.74920300       1.02787300      -4.12916591      -0.86623588       1.04137470
Si       2.22023000       5.10313000       7.16329000      -1.58663400       1.19675500      -1.89967800      -1.77634217       1.19015444      -1.94011263
Si       3.27754000       8.17117000       8.35443000       4.04667900       4.58101600      -2.24829100       3.90962477       4.53976282      -2.47889940
Si       4.48145000       2.18337000       8.34202000      -5.72220500      -5.96162700      -4.99603400      -5.48995715      -5.82583088      -5.13117637
Si       6.36439000       4.54151000       2.12641000       2.28764700      -2.33178900       1.39384200       2.60970766      -2.24463760       1.25200420
Si       4.52267000       6.51460000       3.75633000       0.42177200       5.22743800       1.25328700       0.14994280       5.39607758       1.40796427
Si       7.68278000       0.22257000       3.11016000      -0.17295300       4.89916800      -3.86478000      -0.31530839       4.76262130      -3.99375392
Si       7.35363000       3.38410000       6.13231000       4.40786200       1.27045000       2.62604800       4.32683465       1.40386598       2.98786403
54
Lattice="8.579999685 0.0 0.0 0.0 8.579999685 0.0 0.0 0.0 8.5799996" Properties=species:S:1:pos:R:3:REF_forces:R:3:MACE_forces:R:3 config_type=Fe34B10Si10 REF_energy=-354.71875992 MACE_energy=-355.339848346732 pbc="T T T"
Fe       0.43313000       1.19321000       2.96848000       1.47291300       2.99028000       0.61180900       1.61293855       2.98777014       0.30621269
Fe       0.91365000       1.12516000       8.09995000       2.76260400      -2.00335600       1.20968300       2.59377331      -2.17698753       1.12735034
Fe       1.17142000       2.67870000       5.23446000      -1.90323000       6.04651700       0.58026800      -1.67234816       6.31018073       0.60342210
Fe       0.60772000       3.85484000       0.87278000       2.66909500       4.89444800       4.53699300       2.67282089       5.09471366       4.28248972
Fe       1.41565000       3.44858000       3.01161000      -0.29549500       2.03729500      -0.74017400      -0.29298501       1.93479102      -0.67202756
Fe       0.04226000       2.91249000       8.09734000      -3.39897200      -2.84207300      -2.69442200      -3.13572727      -2.75272548      -2.52804099
Fe       1.33282000       7.09057000       5.22634000      -0.45239700      -1.35392500       0.92503500      -0.20626053      -1.49757922       0.80733094
Fe       2.06045000       7.92051000       0.98063000      -3.11321000      -0.30108300      -2.49280600      -3.23999057      -0.54032005      -2.32713027
Fe       2.03627000       8.24295000       3.50701000      -1.42216600       4.38122900       0.88517600      -1.52043707       4.19611525       0.54795649
Fe       0.01253000       8.02686000       7.00667000       2.58679700       0.98610200     -11.80201700       2.50857598       0.82891553     -11.93264359
Fe       3.00353000       0.57289000       6.13981000      -1.03922300       0.18357300       0.93137300      -0.71350794      -0.02246498       1.08209719
Fe       3.69949000       2.65196000       7.51811000       2.76433000      -4.34399200      -3.80269000       2.57077691      -4.13885834      -3.70089360
Fe       2.94478000       6.44154000       3.03987000       7.21319500      -3.66655800      -1.17614100       7.11489524      -3.34442349      -0.90484544
Fe       2.94309000       5.75189000       6.64956000      -6.24071800      -0.74678300       3.86021800      -6.61933135      -0.76851522       3.87825033
Fe       3.71160000       8.39321000       1.86324000       2.24845700      -0.43546600       0.28887200       2.34916996      -0.24592490       0.53001185
Fe       4.07810000       8.43915000       4.32840000       2.88035800       1.28304800      -0.49181300       2.95067006       1.49246855      -0.81124429
Fe       5.57499000       0.73262000       6.31633000      -3.12774100      -1.68249800      -0.98058200      -3.00342914      -1.73914927      -1.03098456
Fe       4.70712000       1.94493000       1.65492000      -2.04675700       4.97917500      -3.67899600      -2.15136766       4.81134934      -3.40097016
Fe       4.73401000       4.18392000       1.24748000       0.71501700       1.80608500      -0.06999200       0.72532582       2.00430088      -0.15551966
Fe       4.56687000       4.22266000       4.39618000       0.73801700       3.32591500      -2.10569900       0.62537890       3.51219194      -2.31988182
Fe       4.51224000       4.61167000       7.05684000       2.53211900      -0.41024200       0.53825400       2.99675347      -0.70336039       0.65138619
Fe       6.32808000       6.81945000       4.24288000      -3.20445400      -0.33519400      -1.28892300      -2.86587725      -0.32404674      -1.09556806
Fe       6.22240000       7.17309000       0.16230000      -3.30904600      -2.75215800       1.90373500      -3.56129465      -2.98232936       1.90623905
Fe       4.54224000       7.44382000       7.03838000       0.17895600      -5.02037800      -8.74618400       0.16689352      -5.30952497      -8.86688411
Fe       4.73272000       8.55832000       8.35561000      -0.10588400       8.96287400       6.54083400      -0.24595890       9.49675179       6.45040364
Fe       7.67285000       2.82429000       2.17742000      -2.12886900      -0.76272600      -2.06587500      -2.11156901      -0.69335048      -1.92724528
Fe       6.74071000       1.77406000       4.33655000       0.47479500       0.50025500      -0.42349800       0.14872060       0.53763398      -0.57215427
Fe       7.16362000       1.61896000       6.68131000       5.11373900       1.83737400       0.70818800       4.98335099       1.65837112       0.64492695
Fe       6.73653000       4.13840000       7.84564000       0.19062300       0.32905600       3.59274800       0.34685127       0.46220739       3.69680589
Fe       6.61248000       5.35948000       2.44590000       0.96755600      -0.77403900      -0.47053600       0.91875708      -0.77149402      -0.37233910
Fe       8.39074000       4.95678000       4.82580000       0.50677700       3.21370700       1.22596300       0.53665428       3.13806263       1.09712071
Fe       6.62275000       6.29700000       6.29237000       0.91106900      -0.58785400       1.74696000       0.85670154      -0.46292975       1.53075126
Fe       8.00875000       8.14674000       2.12563000      -1.25903800      -1.94608200      -3.37077000      -0.86923471      -1.96850902      -3.54532820
Fe       7.96861000       8.10559000       4.08816000       1.24434400       0.03207600       4.40361200       0.69982492      -0.04457817       4.64717430
B        3.14587000       1.61638000       2.59818000      -3.96044800      -1.57388800      -2.24367700      -4.10036835      -1.56048990      -2.21021367
B        4.07212000       1.93087000       3.78701000       0.55534200       0.12762300      -3.25123200       0.40542454      -0.04923547      -3.41081250
B        2.24412000       1.90783000       4.05913000      -1.80380000      -9.70850100      -5.48536600      -1.83577912      -9.88356338      -5.58977511
B        2.90130000       3.06657000       4.45062000       2.48509300       7.60479000      -1.50334300       2.77087282       7.04037416      -1.33366814
B        2.82587000       3.80138000       5.80651000       0.21675600       2.27927400       3.92227300       0.29086211       2.14660257       3.97969070
B        2.60929000       5.04297000       1.66311000       0.12617300      -0.77075900      -0.46531300      -0.04597307      -0.94205568      -0.47023225
B        2.47198000       4.95014000       4.32601000      -0.76752800      -1.31946700       0.35153300      -0.92036046      -1.11410402       0.32839939
B        2.73354000       7.81887000       7.66829000      -1.47869400      -0.15377200       0.00458000      -1.41094716      -0.12870190       0.10925207
B        5.68071000       2.28134000       7.79544000      -0.95924500       0.41857400       1.11780500      -1.05009199       0.37699600       1.11776516
B        7.77536000       3.70665000       3.76574000      -0.44877700      -1.48394500      -0.38974400      -0.50298642      -1.37468704      -0.18824514
Si       0.79518000       0.92195000       5.77957000      -1.66645900      -4.94136200      -1.10925300      -1.65156669      -5.10385705      -0.91258544
Si       0.88055000       4.20706000       6.73551000       1.15626000       3.58432200      -0.32349000       1.13106955       3.71216163      -0.27515866
Si       1.15025000       6.44729000       2.43826000      -7.77651300      -1.83655100      -1.54918700      -7.82941866      -1.64194656      -1.75425976
Si       2.82820000       3.29548000       0.50208000      -4.05499500       1.58525200       5.32597100      -4.14913694       1.39426909       5.14013048
Si       4.14031000       6.38272000       0.30005000      -2.16949800      -2.44928300       2.57761000      -2.30693053      -2.39105120       2.43723994
Si       3.68345000       6.43010000       5.01209000       3.98893100       0.98565200      -2.13453700       3.91965920       1.18976997      -2.03223288
Si       5.73751000       0.59059000       2.53265000       5.08228400      -4.90021500       2.23852200       5.21519475      -5.01389336       2.54827266
Si       4.51163000       2.47994000       5.36819000       2.60737700      -2.86786400       7.12589500       2.70474700      -2.58980775       7.31117669
Si       6.43436000       3.75222000       5.86206000       1.38008400       0.66155200      -3.64612400       1.48769873       0.69430428      -3.78865860
Si       8.06432000       7.52318000       8.55473000       2.36409700      -3.06603600      11.34847700       2.70851661      -2.73983693      11.36768636
18
Lattice="6.5 0.0 0.0 0.0 6.5 0.0 0.0 0.0 6.5" Properties=species:S:1:pos:R:3:REF_forces:R:3:MACE_forces:R:3 config_type=Fe12B3Si3 REF_energy=-113.87843945 MACE_energy=-112.51174683071318 pbc="T T T"
Fe       5.40234000       5.43492000       1.53729000      -1.39532100       2.04028400       0.71142300      -1.14249140       2.05789243       0.77630770
Fe       2.09750000       2.10361000       0.54730000       2.35673700      -0.33103000       1.27254800       2.76843851      -0.25529889       1.33078641
Fe       2.84360000       1.73250000       3.81271000       2.28004000      -1.18251600      -0.27344700       2.26969796      -1.09541045      -0.32013225
Fe       0.77541000       4.93717000       1.04317000       1.56096300      -3.83372900       1.76362000       1.54426809      -3.67539565       1.58319055
Fe       0.07665000       3.70431000       3.74351000      -0.75952900      -0.39175400      -2.23189700      -0.81707058      -0.46319843      -2.37450165
Fe       4.77171000       3.58949000       4.78220000      -1.99219600      -4.62409700       0.48420500      -1.84076168      -4.55180990       0.46266829
Fe       4.12430000       1.49867000       1.46476000       0.29771700      -2.38794700       0.28396300       0.37361677      -2.68511149       0.14437003
Fe       0.95387000       5.17746000       5.28728000      -0.57085000      -0.50160400      -1.80733600      -0.80305601      -0.67344574      -1.39236493
Fe       1.93602000       3.09888000       2.36598000      -0.08855100       0.43128300      -0.27209000      -0.23650163       0.60510421      -0.36102893
Fe       5.69037000       1.28357000       4.20026000      -0.40866000      -0.49067900       0.18976600      -0.66064691      -0.38345247       0.23807228
Fe       1.94321000       2.86141000       5.39871000      -0.55906500       0.73218900      -1.80086600      -0.72639374       1.21093275      -2.21813805
Fe       4.33122000       5.38124000       5.25469000      -0.73272900       4.56545400       1.52017900      -0.62445734       4.51112948       1.60664494
B        0.37598000       1.64060000       1.21420000      -3.21263000       2.85095800       0.76078000      -3.24342725       2.73296738       1.03521557
B        1.88110000       4.04794000       3.96741000       2.48956600       2.45119300      -0.32261600       2.50698791       2.19649597      -0.23788134
B        3.63878000       0.94242000       5.41981000      -0.01444500       0.67937600       0.95779200       0.00842397       0.77791347       1.10068568
Si       1.19380000       0.26963000       0.19686000       0.54051800       0.24528300      -1.93219100       0.57671180      -0.01126812      -1.88573491
Si       4.57825000       3.47658000       1.16117000       0.15934200       1.26766700      -0.81102600       0.19123914       1.33478744      -0.76240029
Si       1.09558000       0.76720000       2.75124000       0.04909300      -1.52033200       1.50719200      -0.14457762      -1.63283201       1.27424092
54
Lattice="8.579999685 0.0 0.0 0.0 8.579999685 0.0 0.0 0.0 8.5799996" Properties=species:S:1:pos:R:3:REF_forces:R:3:MACE_forces:R:3 config_type=Fe34B10Si10 REF_energy=-356.0869274 MACE_energy=-357.046991261932 pbc="T T T"
Fe       0.92877000       1.08311000       2.12831000      -0.53214900      -1.15432400       0.53007800      -0.60196168      -1.16435729       0.47107745
Fe       1.12794000       0.45096000       7.37327000      -2.86345100       2.18226700       1.45805300      -2.75269961       2.11123297       1.41041201
Fe       0.91289000       3.61082000       1.96264000      -1.66570100       0.50807500      -4.76654600      -1.58202553       0.06981240      -4.43771218
Fe       0.97242000       3.25012000       3.83975000      -0.85629000      -1.23507100      -0.91491200      -1.06919824      -1.03520080      -0.66585735
Fe       1.43574000       3.84332000       5.84621000      -1.94378300      -0.72872400       4.94145300      -2.06831183      -0.53629774       4.70507637
Fe       0.45897000       5.99881000       1.32384000       1.86679900       1.45939200      -0.33976700       1.67049554       1.46352057      -0.17218274
Fe       0.05714000       6.25044000       6.01250000       0.66851500      -0.88142700       1.67028200       0.62385334      -0.75846510       1.74857126
Fe       1.87526000       7.05991000       7.27744000      -5.90957000       6.81146600       5.95768600      -5.61980954       6.96847127       5.79645594
Fe       4.21220000       0.80536000       3.81626000       0.44958900      -1.97725700       0.54591300       0.53233910      -1.79207720       0.46988318
Fe       2.64196000       0.75311000       5.88605000       0.80305000      -0.92688600      -1.50973400       0.49428327      -1.09180345      -1.53041072
Fe       2.51735000       4.27963000       7.86001000      -0.17185400       2.88247300       0.00075600      -0.18848650       3.06116032       0.07974031
Fe       2.46175000       4.76211000       4.38544000       2.27245000       6.36429500      -0.60000700       2.26867320       6.36999815      -0.46027805
Fe       3.99132000       4.46692000       6.09268000      -0.21521200      -1.96607600      -0.25853400      -0.34692492      -2.20434066      -0.13997593
Fe       4.03283000       6.20484000       2.50717000       0.32509400      -1.83048700       1.07686200       0.33866875      -1.78426472       1.11190167
Fe       2.62183000       8.12097000       1.25125000      -5.45108600      -1.04608100      -0.88869000      -5.61372674      -1.08733207      -0.66966451
Fe       2.34208000       7.49949000       3.33705000      -1.45221900       0.10179900       1.96325000      -1.30587077       0.10807326       1.58592741
Fe       4.67554000       0.98699000       8.35162000       1.97529500       0.95938300       0.07305200       1.70378133       0.86710613       0.34596309
Fe       4.68615000       2.28426000       1.60336000       6.03713100       4.39249100       1.56082500       6.15919246       4.36278086       1.10359387
Fe       4.95897000       4.28949000       0.91503000       1.24258400       3.77490300      -1.07876200       0.80735740       3.55085301      -1.16906630
Fe       5.62605000       3.84953000       3.25301000      -4.56775200       3.43217100       2.09526400      -4.72588214       3.41735000       1.96897450
Fe       5.63153000       5.70233000       4.67966000       0.04558900       0.36352900      -0.74034800       0.11717542      -0.04970480      -0.58106244
Fe       5.00954000       6.14620000       6.89198000       4.51113600      -2.60361300       1.43664400       4.57920804      -2.57841494       1.28248853
Fe       5.34723000       7.32984000       0.56425000       3.41130600      -7.55812200      -7.44238600       3.19353969      -7.17908864      -7.13765751
Fe       4.57141000       8.20633000       1.67615000      -2.51651100       6.57056000       9.11650700      -2.27134320       6.22627060       8.85276383
Fe       5.67084000       7.83697000       6.02451000      -0.02983000       3.57151200       0.33120700      -0.04014876       3.68830356       0.46362536
Fe       7.65837000       1.05332000       0.64336000       1.95813700       2.93603900      -3.62028800       1.77644467       2.79683023      -3.41389387
Fe       7.23579000       1.49494000       3.62009000       0.88838800      -1.50203300       3.00240400       1.06551796      -1.49566867       3.00435003
Fe       6.96409000       1.59543000       6.70415000       0.40175100      -2.57633900      -0.54943900       0.43792626      -2.38665461      -0.46118916
Fe       6.97946000       3.05325000       2.27831000       3.01329100      -2.85779700      -7.80747400       2.67671388      -2.89037050      -7.43734828
Fe       7.05854000       3.62734000       7.13255000       0.94483300       2.42104600       2.56329500       0.99566570       2.26855362       2.34507066
Fe       7.47490000       4.49325000       0.92243000      -3.13561000       0.06366500       0.11142200      -2.80872132       0.41604241      -0.12815608
Fe       7.76499000       5.40883000       4.05655000       3.42051700      -2.49950500       1.10150300       3.65102872      -2.68722443       1.14321727
Fe       6.91686000       6.16423000       2.38917000      -4.34160700       0.52717700      -3.24358900      -4.39948912       0.89228241      -3.26401814
Fe       7.31773000       7.39473000       4.73130000      -1.41907300       3.06948200       1.38572900      -1.46641298       2.97618245       1.32661171
B        1.63947000       5.44017000       2.85377000      -1.37965300       1.67099600      -0.34434500      -1.39911581       1.77872932      -0.51282112
B        3.47444000       1.29905000       1.69513000      -6.04542900      -7.46227000      -1.52467000      -6.13919381      -7.01601420      -1.31712894
B        2.31673000       1.42955000       3.77944000      -1.85652800      -2.14982900       3.21956500      -1.86188672      -1.95150618       3.28983290
B        3.17088000       0.01260000       8.16689000      -2.14308300      -0.12737100      -3.63430700      -2.08051093       0.15097522      -3.47017397
B        2.48887000       2.23189000       2.44876000      -1.30373000       3.96631200      -0.94871100      -0.92872761       3.66932433      -1.25589528
B        3.55016000       3.21990000       0.17024000       2.13469500      -3.52588700       0.23974700       2.16093618      -3.61196802       0.39077414
B        3.12966000       3.07291000       4.24572000      -6.99085300       0.34377600      -0.16579100      -6.82079190       0.08749600      -0.15622394
B        2.38358000       5.95301000       6.34325000       2.25901800      -8.76611800      -6.31465800       2.12641108      -9.06775286      -6.44934780
B        4.46260000       2.62992000       4.23823000       7.08507900      -1.75449200       0.40993300       6.95319460      -1.82219738       0.34713444
B        7.51183000       3.59374000       3.85724000       1.49621300      -1.20378300       3.39561400       1.48966330      -0.99394927       3.22358134
Si       0.50050000       1.66927000       5.10425000      -1.02554400      -2.67263500       2.61432900      -0.78438275      -2.97918961       2.53802605
Si       0.41923000       4.50138000       8.15701000       0.82744200      -0.47721100      -2.57541600       1.10805606      -0.43923413      -2.75920621
Si       2.90131000       4.25049000       1.93860000       2.71957100       0.04497600      -0.88170100       2.69119868       0.00119285      -1.02948715
Si       3.74353000       6.85388000       5.19884000      -1.20766000       1.80214700      -2.20114300      -1.08922329       1.95404194      -2.06607184
Si       3.54209000       6.47938000       8.21357000      -0.45014500      -1.75854100       4.24377300      -0.57137174      -2.01484697       4.42776167
Si       4.55252000       1.74669000       6.40118000       0.28733400       0.20348600      -1.69136000       0.29178563       0.23361240      -1.67478244
Si       5.87020000       3.30923000       5.41310000       1.93974000       0.55942400      -1.14043100       1.69144553       0.82534348      -1.26936214
Si       6.68392000       0.09389000       2.07850000      -2.78148600      -1.30329400       2.70552900      -2.56503746      -1.23866011       2.87259240
Si       7.30980000       7.36953000       0.08595000       4.18267400      -0.22507900      -1.67891000       4.45571668      -0.36072532      -1.75574652
Si       8.41387000       7.50606000       2.97540000       5.08859000       1.78741200      -0.88875800       5.04098247       1.90176991      -0.92068673
54
Lattice="8.579999685 0.0 0.0 0.0 8.579999685 0.0 0.0 0.0 8.5799996" Properties=species:S:1:pos:R:3:REF_forces:R:3:MACE_forces:R:3 config_type=Fe34B10Si10 REF_energy=-359.84864784 MACE_energy=-360.422464924116 pbc="T T T"
Fe       0.39531000       2.37288000       0.87042000       3.27925500       2.43832800      -1.60261100       3.16857291       2.59740184      -1.70545185
Fe       0.75383000       1.65209000       3.11094000       1.30783500      -0.34615400      -0.09267000       1.39131133      -0.67150193       0.04708676
Fe       1.33201000       3.79282000       7.26231000      -2.40668100      -1.18131200       0.32245500      -2.55350722      -1.20125233       0.18882093
Fe       0.64436000       4.41396000       2.97573000       2.42004200      -2.26182600       0.38963900       2.47470115      -2.06352702       0.21051725
Fe       0.14751000       6.42079000       3.51005000      -3.07002100       1.32407200      -2.30638400      -3.19289569       1.34842806      -2.49949406