54
Lattice="8.579999685 0.0 0.0 0.0 8.579999685 0.0 0.0 0.0 8.5799996" Properties=species:S:1:pos:R:3:REF_forces:R:3:MACE_forces:R:3 config_type=Fe34B10Si10 REF_energy=-352.89092233 MACE_energy=-353.18879902811454 pbc="T T T"
Fe       1.46495000       0.71583000       1.12880000       3.73230100      -3.41607500      -3.76209700       3.68541336      -3.47038718      -3.54545960
Fe       0.56244000       2.07917000       1.96452000      -3.31290700       4.06628900       2.54508600      -3.25178866       3.95729425       2.31268773
Fe       0.86636000       2.12990000       5.00906000     -10.85567700      -2.87102900      12.20968700     -10.89928389      -2.95878287      12.19987054
Fe       0.24697000       2.61233000       7.83061000      -0.37811800      -2.03816900      -0.08744800      -0.40938935      -1.91677008       0.07161536
Fe       0.35437000       4.66395000       8.16447000      -1.30300600       1.62250000       0.84662400      -1.33816767       1.65000187       0.79183732
Fe       0.83543000       8.00840000       3.01492000       5.54921000      -2.55787300       0.52513800       5.71197250      -2.53674608       0.40969691
Fe       2.03952000       7.84431000       6.63062000      -4.28706100       1.82495200      -1.68802900      -4.08877017       1.97677289      -1.62870634
Fe       3.34318000       0.11090000       2.96052000      -0.46571400      -0.35056300       0.37864800      -0.49913748      -0.22263709       0.47876403
Fe       3.26317000       2.11539000       1.48699000      -3.47884800      -0.03222100       0.61542300      -3.38888971      -0.30269742       0.18348748
Fe       4.14313000       2.75755000       3.31065000      -0.71378000      -2.73118300       1.93004800      -0.63237762      -2.43480346       1.89742405
Fe       2.55051000       2.67374000       7.19710000      -2.55215900      -0.93589000       1.77261600      -2.30475449      -1.12202973       1.72300864
Fe       3.61327000       2.86500000       5.46497000       1.55763200       0.20514300      -0.56676300       1.48670766       0.28541516      -0.32583832
Fe       2.62400000       4.72550000       1.39174000      -1.08585200      -1.19598700       0.59645400      -1.35382741      -0.97570124       0.69560565
Fe       2.20317000       5.21693000       3.87451000      -3.92870900      -4.38103900      -4.92199500      -3.87778181      -4.36178982      -4.98434463
Fe       3.93082000       4.37819000       8.08226000       1.07616800       0.44807800      -0.99700400       1.00411870       0.29224263      -0.94289486
Fe       2.44961000       7.01753000       1.08943000       0.32119000      -1.55635000       3.27006500       0.42075470      -1.60806280       3.27489423
Fe       3.02500000       6.15780000       5.08193000      -1.08486800       1.64126100       3.95415400      -0.57774410       1.65130940       4.06698865
Fe       5.77712000       0.44616000       0.16142000      -2.43333700       0.07175000       4.13474700      -2.46695154       0.42147030       4.21734611
Fe       5.66964000       0.14892000       2.95259000      -3.67617900       1.90971100       0.12919700      -3.69812850       1.63556194       0.32268435
Fe       5.39484000       2.66317000       1.55162000       4.08183700      -3.39937100       3.88213200       4.05865535      -3.64708961       4.04816920
Fe       5.91309000       3.40423000       8.31953000       8.90196200       5.48305700      -2.72562400       8.67795639       5.42441496      -2.67110284
Fe       4.96126000       4.63305000       3.41410000      -3.60269200      -2.00302700       2.25051900      -3.72193947      -2.21564326       2.41446678
Fe       5.11347000       6.81217000       1.78872000      -0.87770500       0.06714300      -1.61156800      -0.69689078       0.06114440      -1.58505097
Fe       5.00950000       6.45991000       8.24507000      -2.30619500      -0.19808200      -1.52355700      -2.30161798       0.00697293      -1.69904642
Fe       4.64263000       7.71190000       5.75084000       2.50156800       4.23919200      -1.55456800       2.57887731       4.30723769      -1.60161591
Fe       7.32285000       0.33022000       5.03535000      -0.99210900      -0.59745100       4.73628300      -1.02037368      -0.35704734       4.80099947
Fe       6.75330000       1.32958000       7.05071000       0.53851300       2.01290400       0.36400700       0.55068767       1.82730734       0.31256067
Fe       6.82686000       2.53028000       3.66692000      -0.08907100      -0.12987400      -0.26318300      -0.04100356      -0.20020630      -0.25691635
Fe       6.83617000       5.56618000       0.59386000       1.74434500       1.47371700      -3.32847200       1.82390512       1.64578748      -3.46483352
Fe       8.27091000       4.29855000       2.87718000       3.23308900       0.33980500       1.37352500       3.19545134       0.19185291       1.31230148
Fe       6.58774000       4.90718000       4.97515000      -1.87594500       0.58060600      -0.05143700      -2.13339149       0.64618833      -0.35226806
Fe       6.86773000       6.79187000       3.27473000       1.52763600      -2.76254700       0.67579100       1.37751175      -2.43322469       0.36917859
Fe       8.09083000       8.29691000       0.84396000      -4.18921500      -1.95965200       9.56442300      -4.14319735      -2.31259017       9.66865153
Fe       6.62133000       7.67903000       7.47205000      -3.65417600       1.51975600      -3.32990400      -3.91181797       1.21887103      -3.51073114
B        3.45077000       6.81738000       6.75435000       2.04131500      -2.79808300       3.80923700       1.92659444      -2.74359958       3.95677866
B        4.67436000       1.10514000       4.73414000       0.75036200       0.95391600      -0.52852700       0.82757365       0.88529027      -0.46257907
B        6.18153000       2.20088000       5.47737000      -4.49435700      -3.20609500      -2.27763700      -4.72480567      -3.15238556      -2.50090760
B        5.08133000       4.10197000       6.35983000       0.35152900       0.25548900      -0.65354500       0.56073238       0.32921690      -0.59541903
B        4.48663000       4.29393000       1.40792000      -0.27448100       1.04603100       0.21283300      -0.27323175       1.21772824       0.15345978
B        4.96286000       5.88068000       6.14703000       0.60492000      -1.85032800       0.29314600       0.59863866      -1.92767852       0.14133093
B        8.17242000       5.65216000       5.55863000       1.00443800       0.65677900      -0.69824300       1.04665031       0.69595119      -0.32964924
B        7.98743000       6.92663000       6.60530000       5.86774900       2.58695800      -4.05103700       5.83553692       2.44696658      -3.69956107
B        7.10769000       5.72812000       6.91109000      -2.33709700      -3.34606800       1.34633400      -2.28556458      -3.47242504       1.35277399
B        7.81665000       6.81498000       8.33858000       5.04350100      -2.41043400       0.97359300       5.13443501      -2.42647563       0.71614907
Si       0.06983000       0.14925000       7.74742000       4.12649000       2.60901100      -8.87608100       3.96592428       2.64285847      -8.86870940
Si       1.93337000       2.41223000       3.74634000      10.14534600       2.98113100     -12.18526000      10.22093595       3.09607564     -12.00222900
Si       0.75978000       6.02813000       1.69309000      -4.13401100      -0.74920300       1.02787300      -4.11377930      -0.87631110       1.01193682
Si       2.22023000       5.10313000       7.16329000      -1.58663400       1.19675500      -1.89967800      -1.78115460       1.13938570      -1.93331510
Si       3.27754000       8.17117000       8.35443000       4.04667900       4.58101600      -2.24829100       3.89799731       4.53855365      -2.44859410
Si       4.48145000       2.18337000       8.34202000      -5.72220500      -5.96162700      -4.99603400      -5.49069813      -5.81260399      -5.16833752
Si       6.36439000       4.54151000       2.12641000       2.28764700      -2.33178900       1.39384200       2.58293651      -2.22905519       1.28318259
Si       4.52267000       6.51460000       3.75633000       0.42177200       5.22743800       1.25328700       0.13757615       5.34769697       1.37010608
Si       7.68278000       0.22257000       3.11016000      -0.17295300       4.89916800      -3.86478000      -0.27828056       4.79164544      -3.97309596
Si       7.35363000       3.38410000       6.13231000       4.40786200       1.27045000       2.62604800       4.39719587       1.38552917       2.99324936
54
Lattice="8.579999685 0.0 0.0 0.0 8.579999685 0.0 0.0 0.0 8.5799996" Properties=species:S:1:pos:R:3:REF_forces:R:3:MACE_forces:R:3 config_type=Fe34B10Si10 REF_energy=-354.71875992 MACE_energy=-355.28636781798053 pbc="T T T"
Fe       0.43313000       1.19321000       2.96848000       1.47291300       2.99028000       0.61180900       1.64486021       2.97813704       0.34492384
Fe       0.91365000       1.12516000       8.09995000       2.76260400      -2.00335600       1.20968300       2.51443051      -2.08832309       1.09063973
Fe       1.17142000       2.67870000       5.23446000      -1.90323000       6.04651700       0.58026800      -1.69109279       6.29014016       0.62237375
Fe       0.60772000       3.85484000       0.87278000       2.66909500       4.89444800       4.53699300       2.66213942       5.14870186       4.24965797
Fe       1.41565000       3.44858000       3.01161000      -0.29549500       2.03729500      -0.74017400      -0.23986909       1.91455636      -0.68069024
Fe       0.04226000       2.91249000       8.09734000      -3.39897200      -2.84207300      -2.69442200      -3.04501588      -2.80785145      -2.46988122
Fe       1.33282000       7.09057000       5.22634000      -0.45239700      -1.35392500       0.92503500      -0.25410818      -1.49848163       0.83155149
Fe       2.06045000       7.92051000       0.98063000      -3.11321000      -0.30108300      -2.49280600      -3.22852100      -0.51841223      -2.34020662
Fe       2.03627000       8.24295000       3.50701000      -1.42216600       4.38122900       0.88517600      -1.55404654       4.18578506       0.57268314
Fe       0.01253000       8.02686000       7.00667000       2.58679700       0.98610200     -11.80201700       2.52975707       0.83006959     -11.89529886
Fe       3.00353000       0.57289000       6.13981000      -1.03922300       0.18357300       0.93137300      -0.70775618      -0.00241500       1.07357727
Fe       3.69949000       2.65196000       7.51811000       2.76433000      -4.34399200      -3.80269000       2.57304051      -4.15111969      -3.66480258
Fe       2.94478000       6.44154000       3.03987000       7.21319500      -3.66655800      -1.17614100       7.13272249      -3.42771051      -0.97003340
Fe       2.94309000       5.75189000       6.64956000      -6.24071800      -0.74678300       3.86021800      -6.52782320      -0.74421247       3.92211238
Fe       3.71160000       8.39321000       1.86324000       2.24845700      -0.43546600       0.28887200       2.38749473      -0.25191961       0.52940162
Fe       4.07810000       8.43915000       4.32840000       2.88035800       1.28304800      -0.49181300       2.90756774       1.46289276      -0.79030929
Fe       5.57499000       0.73262000       6.31633000      -3.12774100      -1.68249800      -0.98058200      -2.90613168      -1.72489537      -1.01937669
Fe       4.70712000       1.94493000       1.65492000      -2.04675700       4.97917500      -3.67899600      -2.11169164       4.85990796      -3.42122553
Fe       4.73401000       4.18392000       1.24748000       0.71501700       1.80608500      -0.06999200       0.69380399       1.96870199      -0.12843442
Fe       4.56687000       4.22266000       4.39618000       0.73801700       3.32591500      -2.10569900       0.55738943       3.44877529      -2.26774023
Fe       4.51224000       4.61167000       7.05684000       2.53211900      -0.41024200       0.53825400       2.96152993      -0.69174496       0.61569332
Fe       6.32808000       6.81945000       4.24288000      -3.20445400      -0.33519400      -1.28892300      -2.84558397      -0.27127856      -1.07224384
Fe       6.22240000       7.17309000       0.16230000      -3.30904600      -2.75215800       1.90373500      -3.52662796      -2.98538457       1.97269201
Fe       4.54224000       7.44382000       7.03838000       0.17895600      -5.02037800      -8.74618400       0.15770404      -5.30705635      -8.81845915
Fe       4.73272000       8.55832000       8.35561000      -0.10588400       8.96287400       6.54083400      -0.26902324       9.36917455       6.29879724
Fe       7.67285000       2.82429000       2.17742000      -2.12886900      -0.76272600      -2.06587500      -2.12596550      -0.72133885      -1.90741841
Fe       6.74071000       1.77406000       4.33655000       0.47479500       0.50025500      -0.42349800       0.10918803       0.50647350      -0.52354739
Fe       7.16362000       1.61896000       6.68131000       5.11373900       1.83737400       0.70818800       4.86749359       1.64766214       0.63363259
Fe       6.73653000       4.13840000       7.84564000       0.19062300       0.32905600       3.59274800       0.35098062       0.46376519       3.67577811
Fe       6.61248000       5.35948000       2.44590000       0.96755600      -0.77403900      -0.47053600       0.88099429      -0.75228793      -0.42450952
Fe       8.39074000       4.95678000       4.82580000       0.50677700       3.21370700       1.22596300       0.57098168       3.14715562       1.08124712
Fe       6.62275000       6.29700000       6.29237000       0.91106900      -0.58785400       1.74696000       0.84786761      -0.47133156       1.52675003
Fe       8.00875000       8.14674000       2.12563000      -1.25903800      -1.94608200      -3.37077000      -0.86769550      -1.94378987      -3.54421425
Fe       7.96861000       8.10559000       4.08816000       1.24434400       0.03207600       4.40361200       0.66095474      -0.02107000       4.62637080
B        3.14587000       1.61638000       2.59818000      -3.96044800      -1.57388800      -2.24367700      -4.11307053      -1.54286074      -2.20923922
B        4.07212000       1.93087000       3.78701000       0.55534200       0.12762300      -3.25123200       0.40353491       0.01154860      -3.32028938
B        2.24412000       1.90783000       4.05913000      -1.80380000      -9.70850100      -5.48536600      -1.88406765      -9.91175095      -5.57701084
B        2.90130000       3.06657000       4.45062000       2.48509300       7.60479000      -1.50334300       2.79927044       7.17660398      -1.42749409
B        2.82587000       3.80138000       5.80651000       0.21675600       2.27927400       3.92227300       0.26013376       2.12662887       3.93613524
B        2.60929000       5.04297000       1.66311000       0.12617300      -0.77075900      -0.46531300      -0.02173967      -0.95360191      -0.47240566
B        2.47198000       4.95014000       4.32601000      -0.76752800      -1.31946700       0.35153300      -0.89337439      -1.18373252       0.38190005
B        2.73354000       7.81887000       7.66829000      -1.47869400      -0.15377200       0.00458000      -1.43038399      -0.13397509       0.09666292
B        5.68071000       2.28134000       7.79544000      -0.95924500       0.41857400       1.11780500      -1.05237490       0.37837008       1.10597541
B        7.77536000       3.70665000       3.76574000      -0.44877700      -1.48394500      -0.38974400      -0.48036303      -1.40204073      -0.18929740
Si       0.79518000       0.92195000       5.77957000      -1.66645900      -4.94136200      -1.10925300      -1.64393232      -5.03662223      -0.93056438
Si       0.88055000       4.20706000       6.73551000       1.15626000       3.58432200      -0.32349000       1.15419329       3.68523310      -0.31043147
Si       1.15025000       6.44729000       2.43826000      -7.77651300      -1.83655100      -1.54918700      -7.83656585      -1.69247597      -1.75862628
Si       2.82820000       3.29548000       0.50208000      -4.05499500       1.58525200       5.32597100      -4.11309078       1.39451107       5.22788985
Si       4.14031000       6.38272000       0.30005000      -2.16949800      -2.44928300       2.57761000      -2.30850393      -2.34032446       2.44485169
Si       3.68345000       6.43010000       5.01209000       3.98893100       0.98565200      -2.13453700       3.92815090       1.20722172      -2.06147123
Si       5.73751000       0.59059000       2.53265000       5.08228400      -4.90021500       2.23852200       5.16629745      -4.96175670       2.50441430
Si       4.51163000       2.47994000       5.36819000       2.60737700      -2.86786400       7.12589500       2.75815839      -2.57745971       7.29564347
Si       6.43436000       3.75222000       5.86206000       1.38008400       0.66155200      -3.64612400       1.49341871       0.66007566      -3.77740245
Si       8.06432000       7.52318000       8.55473000       2.36409700      -3.06603600      11.34847700       2.70436090      -2.74486743      11.31126870
18
Lattice="6.5 0.0 0.0 0.0 6.5 0.0 0.0 0.0 6.5" Properties=species:S:1:pos:R:3:REF_forces:R:3:MACE_forces:R:3 config_type=Fe12B3Si3 REF_energy=-113.87843945 MACE_energy=-112.3519284806751 pbc="T T T"
Fe       5.40234000       5.43492000       1.53729000      -1.39532100       2.04028400       0.71142300      -1.19921065       2.04769984       0.79523838
Fe       2.09750000       2.10361000       0.54730000       2.35673700      -0.33103000       1.27254800       2.65820449      -0.26695728       1.51171103
Fe       2.84360000       1.73250000       3.81271000       2.28004000      -1.18251600      -0.27344700       2.22580541      -1.03824824      -0.34983347
Fe       0.77541000       4.93717000       1.04317000       1.56096300      -3.83372900       1.76362000       1.52922237      -3.64401005       1.57475626
Fe       0.07665000       3.70431000       3.74351000      -0.75952900      -0.39175400      -2.23189700      -0.94228975      -0.48453143      -2.32309005
Fe       4.77171000       3.58949000       4.78220000      -1.99219600      -4.62409700       0.48420500      -1.76091311      -4.55202145       0.41578803
Fe       4.12430000       1.49867000       1.46476000       0.29771700      -2.38794700       0.28396300       0.32560984      -2.70304721       0.16463986
Fe       0.95387000       5.17746000       5.28728000      -0.57085000      -0.50160400      -1.80733600      -0.84492472      -0.69652070      -1.36745161
Fe       1.93602000       3.09888000       2.36598000      -0.08855100       0.43128300      -0.27209000      -0.22957042       0.54569755      -0.39454574
Fe       5.69037000       1.28357000       4.20026000      -0.40866000      -0.49067900       0.18976600      -0.74240696      -0.35451049       0.25666497
Fe       1.94321000       2.86141000       5.39871000      -0.55906500       0.73218900      -1.80086600      -0.63195587       1.03083060      -2.22284306
Fe       4.33122000       5.38124000       5.25469000      -0.73272900       4.56545400       1.52017900      -0.64393831       4.46893607       1.57888731
B        0.37598000       1.64060000       1.21420000      -3.21263000       2.85095800       0.76078000      -3.14793676       2.79948945       0.97533020
B        1.88110000       4.04794000       3.96741000       2.48956600       2.45119300      -0.32261600       2.55682425       2.32394935      -0.32329227
B        3.63878000       0.94242000       5.41981000      -0.01444500       0.67937600       0.95779200       0.06476762       0.77669088       1.07662560
Si       1.19380000       0.26963000       0.19686000       0.54051800       0.24528300      -1.93219100       0.63708198       0.01154196      -1.90368676
Si       4.57825000       3.47658000       1.16117000       0.15934200       1.26766700      -0.81102600       0.22003185       1.38231740      -0.75853238
Si       1.09558000       0.76720000       2.75124000       0.04909300      -1.52033200       1.50719200      -0.07440127      -1.64730624       1.29363371
54
Lattice="8.579999685 0.0 0.0 0.0 8.579999685 0.0 0.0 0.0 8.5799996" Properties=species:S:1:pos:R:3:REF_forces:R:3:MACE_forces:R:3 config_type=Fe34B10Si10 REF_energy=-356.0869274 MACE_energy=-357.0001494326997 pbc="T T T"
Fe       0.92877000       1.08311000       2.12831000      -0.53214900      -1.15432400       0.53007800      -0.64254440      -1.17101116       0.43751158
Fe       1.12794000       0.45096000       7.37327000      -2.86345100       2.18226700       1.45805300      -2.71897540       2.00780624       1.41699767
Fe       0.91289000       3.61082000       1.96264000      -1.66570100       0.50807500      -4.76654600      -1.58857194       0.19578639      -4.55870321
Fe       0.97242000       3.25012000       3.83975000      -0.85629000      -1.23507100      -0.91491200      -1.12834366      -1.08537991      -0.55347735
Fe       1.43574000       3.84332000       5.84621000      -1.94378300      -0.72872400       4.94145300      -2.05145304      -0.55180518       4.75822556
Fe       0.45897000       5.99881000       1.32384000       1.86679900       1.45939200      -0.33976700       1.68337046       1.46399018      -0.14946629
Fe       0.05714000       6.25044000       6.01250000       0.66851500      -0.88142700       1.67028200       0.61033620      -0.75147196       1.68495782
Fe       1.87526000       7.05991000       7.27744000      -5.90957000       6.81146600       5.95768600      -5.63620381       6.99742440       5.76470526
Fe       4.21220000       0.80536000       3.81626000       0.44958900      -1.97725700       0.54591300       0.52541804      -1.81769653       0.44613727
Fe       2.64196000       0.75311000       5.88605000       0.80305000      -0.92688600      -1.50973400       0.49962922      -1.06849595      -1.47538300
Fe       2.51735000       4.27963000       7.86001000      -0.17185400       2.88247300       0.00075600      -0.17019960       3.03043633       0.03624548
Fe       2.46175000       4.76211000       4.38544000       2.27245000       6.36429500      -0.60000700       2.32181435       6.35957942      -0.52989555
Fe       3.99132000       4.46692000       6.09268000      -0.21521200      -1.96607600      -0.25853400      -0.29161962      -2.19526202      -0.17567575
Fe       4.03283000       6.20484000       2.50717000       0.32509400      -1.83048700       1.07686200       0.40678470      -1.75052269       1.07808135
Fe       2.62183000       8.12097000       1.25125000      -5.45108600      -1.04608100      -0.88869000      -5.54312801      -1.10503317      -0.66620350
Fe       2.34208000       7.49949000       3.33705000      -1.45221900       0.10179900       1.96325000      -1.29206462       0.10830890       1.59881429
Fe       4.67554000       0.98699000       8.35162000       1.97529500       0.95938300       0.07305200       1.71983793       0.88457240       0.33111033
Fe       4.68615000       2.28426000       1.60336000       6.03713100       4.39249100       1.56082500       6.17463071       4.35430657       1.10633605
Fe       4.95897000       4.28949000       0.91503000       1.24258400       3.77490300      -1.07876200       0.79828587       3.56226738      -1.17568799
Fe       5.62605000       3.84953000       3.25301000      -4.56775200       3.43217100       2.09526400      -4.67710662       3.46119856       1.91043430
Fe       5.63153000       5.70233000       4.67966000       0.04558900       0.36352900      -0.74034800       0.10854827      -0.04013616      -0.58709943
Fe       5.00954000       6.14620000       6.89198000       4.51113600      -2.60361300       1.43664400       4.53973890      -2.51664235       1.30729157
Fe       5.34723000       7.32984000       0.56425000       3.41130600      -7.55812200      -7.44238600       3.29161462      -7.11019932      -7.13313743
Fe       4.57141000       8.20633000       1.67615000      -2.51651100       6.57056000       9.11650700      -2.44460591       6.12176014       8.82796875
Fe       5.67084000       7.83697000       6.02451000      -0.02983000       3.57151200       0.33120700      -0.05410501       3.66829906       0.44245483
Fe       7.65837000       1.05332000       0.64336000       1.95813700       2.93603900      -3.62028800       1.83278322       2.81402171      -3.43827889
Fe       7.23579000       1.49494000       3.62009000       0.88838800      -1.50203300       3.00240400       1.05772741      -1.47033260       2.98808482
Fe       6.96409000       1.59543000       6.70415000       0.40175100      -2.57633900      -0.54943900       0.44609058      -2.42560774      -0.48538106
Fe       6.97946000       3.05325000       2.27831000       3.01329100      -2.85779700      -7.80747400       2.63676737      -2.90537765      -7.36749377
Fe       7.05854000       3.62734000       7.13255000       0.94483300       2.42104600       2.56329500       1.00625264       2.32633376       2.37396920
Fe       7.47490000       4.49325000       0.92243000      -3.13561000       0.06366500       0.11142200      -2.82267640       0.40403836      -0.14002049
Fe       7.76499000       5.40883000       4.05655000       3.42051700      -2.49950500       1.10150300       3.56743767      -2.65515122       1.12665874
Fe       6.91686000       6.16423000       2.38917000      -4.34160700       0.52717700      -3.24358900      -4.34347583       0.82109000      -3.24170166
Fe       7.31773000       7.39473000       4.73130000      -1.41907300       3.06948200       1.38572900      -1.43624618       2.97633832       1.33600895
B        1.63947000       5.44017000       2.85377000      -1.37965300       1.67099600      -0.34434500      -1.45722047       1.73034681      -0.55907564
B        3.47444000       1.29905000       1.69513000      -6.04542900      -7.46227000      -1.52467000      -6.08175881      -6.95697599      -1.27543409
B        2.31673000       1.42955000       3.77944000      -1.85652800      -2.14982900       3.21956500      -1.80561886      -1.96686091       3.33860315
B        3.17088000       0.01260000       8.16689000      -2.14308300      -0.12737100      -3.63430700      -2.08254667       0.12800238      -3.47556902
B        2.48887000       2.23189000       2.44876000      -1.30373000       3.96631200      -0.94871100      -0.89710407       3.73002635      -1.23720841
B        3.55016000       3.21990000       0.17024000       2.13469500      -3.52588700       0.23974700       2.13421991      -3.55244878       0.37957346
B        3.12966000       3.07291000       4.24572000      -6.99085300       0.34377600      -0.16579100      -6.89278907       0.10185492      -0.18518846
B        2.38358000       5.95301000       6.34325000       2.25901800      -8.76611800      -6.31465800       2.10961607      -9.03029236      -6.38217321
B        4.46260000       2.62992000       4.23823000       7.08507900      -1.75449200       0.40993300       6.99209486      -1.84109768       0.35459510
B        7.51183000       3.59374000       3.85724000       1.49621300      -1.20378300       3.39561400       1.50482806      -1.01815376       3.21660642
Si       0.50050000       1.66927000       5.10425000      -1.02554400      -2.67263500       2.61432900      -0.78500400      -2.97836853       2.58332803
Si       0.41923000       4.50138000       8.15701000       0.82744200      -0.47721100      -2.57541600       1.08946149      -0.43300326      -2.75670942
Si       2.90131000       4.25049000       1.93860000       2.71957100       0.04497600      -0.88170100       2.71463533      -0.00816176      -1.03394168
Si       3.74353000       6.85388000       5.19884000      -1.20766000       1.80214700      -2.20114300      -1.07461491       1.91888078      -2.09402702
Si       3.54209000       6.47938000       8.21357000      -0.45014500      -1.75854100       4.24377300      -0.59512220      -2.02720349       4.41611248
Si       4.55252000       1.74669000       6.40118000       0.28733400       0.20348600      -1.69136000       0.26201578       0.19392887      -1.62207798
Si       5.87020000       3.30923000       5.41310000       1.93974000       0.55942400      -1.14043100       1.67604761       0.84167070      -1.18591995
Si       6.68392000       0.09389000       2.07850000      -2.78148600      -1.30329400       2.70552900      -2.57779261      -1.24735417       2.84057110
Si       7.30980000       7.36953000       0.08595000       4.18267400      -0.22507900      -1.67891000       4.35963653      -0.40247926      -1.74559762
Si       8.41387000       7.50606000       2.97540000       5.08859000       1.78741200      -0.88875800       5.02126792       1.88025665      -0.87085571
54
Lattice="8.579999685 0.0 0.0 0.0 8.579999685 0.0 0.0 0.0 8.5799996" Properties=species:S:1:pos:R:3:REF_forces:R:3:MACE_forces:R:3 config_type=Fe34B10Si10 REF_energy=-359.84864784 MACE_energy=-360.37355336512763 pbc="T T T"
Fe       0.39531000       2.37288000       0.87042000       3.27925500       2.43832800      -1.60261100       3.16289925       2.65650929      -1.73180735
Fe       0.75383000       1.65209000       3.11094000       1.30783500      -0.34615400      -0.09267000       1.33360067      -0.75661682       0.04812943
Fe       1.33201000       3.79282000       7.26231000      -2.40668100      -1.18131200       0.32245500      -2.48644412      -1.16186591       0.19737884
Fe       0.64436000       4.41396000       2.97573000       2.42004200      -2.26182600       0.38963900       2.44888852      -2.06478939       0.22826825
Fe       0.14751000       6.42079000       3.51005000      -3.07002100       1.32407200      -2.30638400      -3.15275356       1.32964934      -2.48393040