54
Lattice="8.579999685 0.0 0.0 0.0 8.579999685 0.0 0.0 0.0 8.5799996" Properties=species:S:1:pos:R:3:REF_forces:R:3:MACE_forces:R:3 config_type=Fe34B10Si10 REF_energy=-352.89092233 MACE_energy=-353.2980811813533 pbc="T T T"
Fe       1.46495000       0.71583000       1.12880000       3.73230100      -3.41607500      -3.76209700       3.67329128      -3.43973940      -3.55342077
Fe       0.56244000       2.07917000       1.96452000      -3.31290700       4.06628900       2.54508600      -3.34360917       4.05972482       2.35121040
Fe       0.86636000       2.12990000       5.00906000     -10.85567700      -2.87102900      12.20968700     -10.88096587      -2.94111688      12.20187249
Fe       0.24697000       2.61233000       7.83061000      -0.37811800      -2.03816900      -0.08744800      -0.36754222      -2.06941101       0.09583593
Fe       0.35437000       4.66395000       8.16447000      -1.30300600       1.62250000       0.84662400      -1.36320057       1.75643822       0.79244922
Fe       0.83543000       8.00840000       3.01492000       5.54921000      -2.55787300       0.52513800       5.59350226      -2.64417715       0.46075474
Fe       2.03952000       7.84431000       6.63062000      -4.28706100       1.82495200      -1.68802900      -4.06274568       2.03740873      -1.71234433
Fe       3.34318000       0.11090000       2.96052000      -0.46571400      -0.35056300       0.37864800      -0.49270497      -0.17308360       0.45974719
Fe       3.26317000       2.11539000       1.48699000      -3.47884800      -0.03222100       0.61542300      -3.29623138      -0.26019635       0.24740257
Fe       4.14313000       2.75755000       3.31065000      -0.71378000      -2.73118300       1.93004800      -0.69916630      -2.43713641       1.87519529
Fe       2.55051000       2.67374000       7.19710000      -2.55215900      -0.93589000       1.77261600      -2.28583489      -1.02746463       1.69748486
Fe       3.61327000       2.86500000       5.46497000       1.55763200       0.20514300      -0.56676300       1.45836731       0.30483311      -0.28447796
Fe       2.62400000       4.72550000       1.39174000      -1.08585200      -1.19598700       0.59645400      -1.34231911      -0.96194956       0.68091710
Fe       2.20317000       5.21693000       3.87451000      -3.92870900      -4.38103900      -4.92199500      -3.88058193      -4.31388620      -5.03036024
Fe       3.93082000       4.37819000       8.08226000       1.07616800       0.44807800      -0.99700400       0.97170020       0.24352945      -1.01377889
Fe       2.44961000       7.01753000       1.08943000       0.32119000      -1.55635000       3.27006500       0.44246350      -1.61284691       3.34878143
Fe       3.02500000       6.15780000       5.08193000      -1.08486800       1.64126100       3.95415400      -0.36328373       1.65879462       3.98358249
Fe       5.77712000       0.44616000       0.16142000      -2.43333700       0.07175000       4.13474700      -2.41710369       0.41966515       4.17094741
Fe       5.66964000       0.14892000       2.95259000      -3.67617900       1.90971100       0.12919700      -3.69657665       1.65767278       0.30499469
Fe       5.39484000       2.66317000       1.55162000       4.08183700      -3.39937100       3.88213200       3.98242416      -3.76192246       4.13006937
Fe       5.91309000       3.40423000       8.31953000       8.90196200       5.48305700      -2.72562400       8.71171840       5.42275407      -2.74531324
Fe       4.96126000       4.63305000       3.41410000      -3.60269200      -2.00302700       2.25051900      -3.88567960      -2.33613750       2.38960733
Fe       5.11347000       6.81217000       1.78872000      -0.87770500       0.06714300      -1.61156800      -0.71669847       0.12292203      -1.62970158
Fe       5.00950000       6.45991000       8.24507000      -2.30619500      -0.19808200      -1.52355700      -2.19966283      -0.03037254      -1.73572799
Fe       4.64263000       7.71190000       5.75084000       2.50156800       4.23919200      -1.55456800       2.55623264       4.27053857      -1.60263107
Fe       7.32285000       0.33022000       5.03535000      -0.99210900      -0.59745100       4.73628300      -0.98381564      -0.35961471       4.70807947
Fe       6.75330000       1.32958000       7.05071000       0.53851300       2.01290400       0.36400700       0.48789647       1.86779323       0.32445518
Fe       6.82686000       2.53028000       3.66692000      -0.08907100      -0.12987400      -0.26318300       0.03869765      -0.19694831      -0.22112281
Fe       6.83617000       5.56618000       0.59386000       1.74434500       1.47371700      -3.32847200       1.78722128       1.77416943      -3.48428617
Fe       8.27091000       4.29855000       2.87718000       3.23308900       0.33980500       1.37352500       3.09246030       0.18324870       1.33023059
Fe       6.58774000       4.90718000       4.97515000      -1.87594500       0.58060600      -0.05143700      -2.08169423       0.58266944      -0.53032480
Fe       6.86773000       6.79187000       3.27473000       1.52763600      -2.76254700       0.67579100       1.46825597      -2.45091483       0.36289038
Fe       8.09083000       8.29691000       0.84396000      -4.18921500      -1.95965200       9.56442300      -4.21341525      -2.25237789       9.63095827
Fe       6.62133000       7.67903000       7.47205000      -3.65417600       1.51975600      -3.32990400      -3.97457557       1.30934762      -3.46632349
B        3.45077000       6.81738000       6.75435000       2.04131500      -2.79808300       3.80923700       1.96002477      -2.86032345       3.91951012
B        4.67436000       1.10514000       4.73414000       0.75036200       0.95391600      -0.52852700       0.79977712       0.93341198      -0.42542680
B        6.18153000       2.20088000       5.47737000      -4.49435700      -3.20609500      -2.27763700      -4.63528233      -3.15915446      -2.44078571
B        5.08133000       4.10197000       6.35983000       0.35152900       0.25548900      -0.65354500       0.49497393       0.30969383      -0.58002638
B        4.48663000       4.29393000       1.40792000      -0.27448100       1.04603100       0.21283300      -0.22979193       1.21942857       0.22758975
B        4.96286000       5.88068000       6.14703000       0.60492000      -1.85032800       0.29314600       0.46961828      -1.87501885       0.12844980
B        8.17242000       5.65216000       5.55863000       1.00443800       0.65677900      -0.69824300       1.05487632       0.73423717      -0.23414828
B        7.98743000       6.92663000       6.60530000       5.86774900       2.58695800      -4.05103700       5.76582516       2.29420306      -3.60072444
B        7.10769000       5.72812000       6.91109000      -2.33709700      -3.34606800       1.34633400      -2.12453776      -3.40729969       1.52808849
B        7.81665000       6.81498000       8.33858000       5.04350100      -2.41043400       0.97359300       5.01348061      -2.59323892       0.52207852
Si       0.06983000       0.14925000       7.74742000       4.12649000       2.60901100      -8.87608100       3.97852328       2.59279242      -8.80126184
Si       1.93337000       2.41223000       3.74634000      10.14534600       2.98113100     -12.18526000      10.22715994       3.05145966     -12.01102329
Si       0.75978000       6.02813000       1.69309000      -4.13401100      -0.74920300       1.02787300      -4.13307528      -0.86070805       0.96771500
Si       2.22023000       5.10313000       7.16329000      -1.58663400       1.19675500      -1.89967800      -1.66070296       1.16748125      -1.85137532
Si       3.27754000       8.17117000       8.35443000       4.04667900       4.58101600      -2.24829100       3.92525011       4.53043433      -2.38200235
Si       4.48145000       2.18337000       8.34202000      -5.72220500      -5.96162700      -4.99603400      -5.45563017      -5.91661528      -5.14670182
Si       6.36439000       4.54151000       2.12641000       2.28764700      -2.33178900       1.39384200       2.55397559      -2.14346082       1.28117630
Si       4.52267000       6.51460000       3.75633000       0.42177200       5.22743800       1.25328700       0.12310906       5.30325772       1.34137723
Si       7.68278000       0.22257000       3.11016000      -0.17295300       4.89916800      -3.86478000      -0.23747098       4.85112126      -3.93442483
Si       7.35363000       3.38410000       6.13231000       4.40786200       1.27045000       2.62604800       4.39307357       1.42608463       2.95426280
54
Lattice="8.579999685 0.0 0.0 0.0 8.579999685 0.0 0.0 0.0 8.5799996" Properties=species:S:1:pos:R:3:REF_forces:R:3:MACE_forces:R:3 config_type=Fe34B10Si10 REF_energy=-354.71875992 MACE_energy=-355.3976647733323 pbc="T T T"
Fe       0.43313000       1.19321000       2.96848000       1.47291300       2.99028000       0.61180900       1.45266950       2.89334516       0.36843730
Fe       0.91365000       1.12516000       8.09995000       2.76260400      -2.00335600       1.20968300       2.38408344      -1.87417613       1.06251810
Fe       1.17142000       2.67870000       5.23446000      -1.90323000       6.04651700       0.58026800      -1.69862049       6.14752610       0.36970590
Fe       0.60772000       3.85484000       0.87278000       2.66909500       4.89444800       4.53699300       2.62551603       5.09088593       4.13627608
Fe       1.41565000       3.44858000       3.01161000      -0.29549500       2.03729500      -0.74017400      -0.01076372       1.92365606      -0.65155532
Fe       0.04226000       2.91249000       8.09734000      -3.39897200      -2.84207300      -2.69442200      -2.78313371      -3.00183501      -2.43751236
Fe       1.33282000       7.09057000       5.22634000      -0.45239700      -1.35392500       0.92503500      -0.23044502      -1.48280188       0.95208311
Fe       2.06045000       7.92051000       0.98063000      -3.11321000      -0.30108300      -2.49280600      -3.25755016      -0.42885878      -2.47634428
Fe       2.03627000       8.24295000       3.50701000      -1.42216600       4.38122900       0.88517600      -1.50914483       4.09735070       0.63572758
Fe       0.01253000       8.02686000       7.00667000       2.58679700       0.98610200     -11.80201700       2.46463321       0.88879120     -11.91399273
Fe       3.00353000       0.57289000       6.13981000      -1.03922300       0.18357300       0.93137300      -0.76943559       0.13955237       0.98748507
Fe       3.69949000       2.65196000       7.51811000       2.76433000      -4.34399200      -3.80269000       2.60646441      -4.11634386      -3.67459857
Fe       2.94478000       6.44154000       3.03987000       7.21319500      -3.66655800      -1.17614100       6.98294664      -3.45547934      -0.99311635
Fe       2.94309000       5.75189000       6.64956000      -6.24071800      -0.74678300       3.86021800      -6.42303881      -0.63954599       3.98621132
Fe       3.71160000       8.39321000       1.86324000       2.24845700      -0.43546600       0.28887200       2.33210252      -0.10644512       0.67889929
Fe       4.07810000       8.43915000       4.32840000       2.88035800       1.28304800      -0.49181300       2.84377223       1.32273633      -0.76948186
Fe       5.57499000       0.73262000       6.31633000      -3.12774100      -1.68249800      -0.98058200      -2.78957487      -1.71904051      -0.92140200
Fe       4.70712000       1.94493000       1.65492000      -2.04675700       4.97917500      -3.67899600      -2.14206429       4.78974605      -3.42551714
Fe       4.73401000       4.18392000       1.24748000       0.71501700       1.80608500      -0.06999200       0.71717970       1.98115468      -0.12267221
Fe       4.56687000       4.22266000       4.39618000       0.73801700       3.32591500      -2.10569900       0.51761895       3.16081451      -2.15774788
Fe       4.51224000       4.61167000       7.05684000       2.53211900      -0.41024200       0.53825400       2.95623887      -0.74608678       0.48225822
Fe       6.32808000       6.81945000       4.24288000      -3.20445400      -0.33519400      -1.28892300      -2.80137159      -0.23572910      -1.07273022
Fe       6.22240000       7.17309000       0.16230000      -3.30904600      -2.75215800       1.90373500      -3.51390349      -2.96385569       2.04264253
Fe       4.54224000       7.44382000       7.03838000       0.17895600      -5.02037800      -8.74618400       0.30284896      -5.26722557      -8.85505340
Fe       4.73272000       8.55832000       8.35561000      -0.10588400       8.96287400       6.54083400      -0.29970989       9.34250127       6.18418780
Fe       7.67285000       2.82429000       2.17742000      -2.12886900      -0.76272600      -2.06587500      -2.11321364      -0.83274621      -1.98396582
Fe       6.74071000       1.77406000       4.33655000       0.47479500       0.50025500      -0.42349800       0.07986020       0.41117602      -0.45456623
Fe       7.16362000       1.61896000       6.68131000       5.11373900       1.83737400       0.70818800       4.70249945       1.62971667       0.63564049
Fe       6.73653000       4.13840000       7.84564000       0.19062300       0.32905600       3.59274800       0.16886016       0.47500365       3.61671141
Fe       6.61248000       5.35948000       2.44590000       0.96755600      -0.77403900      -0.47053600       0.84877855      -0.66427616      -0.45961429
Fe       8.39074000       4.95678000       4.82580000       0.50677700       3.21370700       1.22596300       0.60054406       3.14028340       1.08551413
Fe       6.62275000       6.29700000       6.29237000       0.91106900      -0.58785400       1.74696000       0.82675377      -0.48448625       1.60286182
Fe       8.00875000       8.14674000       2.12563000      -1.25903800      -1.94608200      -3.37077000      -0.86162367      -1.93040898      -3.42086043
Fe       7.96861000       8.10559000       4.08816000       1.24434400       0.03207600       4.40361200       0.71882767       0.04913368       4.55210255
B        3.14587000       1.61638000       2.59818000      -3.96044800      -1.57388800      -2.24367700      -3.98862755      -1.49357158      -2.03179386
B        4.07212000       1.93087000       3.78701000       0.55534200       0.12762300      -3.25123200       0.40681806       0.17732529      -3.19593323
B        2.24412000       1.90783000       4.05913000      -1.80380000      -9.70850100      -5.48536600      -1.86829891     -10.00280831      -5.62347247
B        2.90130000       3.06657000       4.45062000       2.48509300       7.60479000      -1.50334300       2.84664597       7.25618521      -1.51449046
B        2.82587000       3.80138000       5.80651000       0.21675600       2.27927400       3.92227300       0.28551136       2.15191292       3.90617562
B        2.60929000       5.04297000       1.66311000       0.12617300      -0.77075900      -0.46531300      -0.03690975      -0.80781700      -0.44399044
B        2.47198000       4.95014000       4.32601000      -0.76752800      -1.31946700       0.35153300      -0.80867230      -1.22278162       0.41034541
B        2.73354000       7.81887000       7.66829000      -1.47869400      -0.15377200       0.00458000      -1.52414690      -0.17085639       0.21832763
B        5.68071000       2.28134000       7.79544000      -0.95924500       0.41857400       1.11780500      -0.96200214       0.37166293       1.06379086
B        7.77536000       3.70665000       3.76574000      -0.44877700      -1.48394500      -0.38974400      -0.54704308      -1.40304884      -0.07061744
Si       0.79518000       0.92195000       5.77957000      -1.66645900      -4.94136200      -1.10925300      -1.61776146      -5.03422821      -0.95384771
Si       0.88055000       4.20706000       6.73551000       1.15626000       3.58432200      -0.32349000       1.11806535       3.70744574      -0.23212683
Si       1.15025000       6.44729000       2.43826000      -7.77651300      -1.83655100      -1.54918700      -7.83520806      -1.70695134      -1.70591506
Si       2.82820000       3.29548000       0.50208000      -4.05499500       1.58525200       5.32597100      -4.07964063       1.41976110       5.24416788
Si       4.14031000       6.38272000       0.30005000      -2.16949800      -2.44928300       2.57761000      -2.29006448      -2.41377296       2.48662197
Si       3.68345000       6.43010000       5.01209000       3.98893100       0.98565200      -2.13453700       3.85166795       1.16528414      -2.13981870
Si       5.73751000       0.59059000       2.53265000       5.08228400      -4.90021500       2.23852200       5.10164091      -4.86901961       2.49696995
Si       4.51163000       2.47994000       5.36819000       2.60737700      -2.86786400       7.12589500       2.78322127      -2.61950010       7.06619545
Si       6.43436000       3.75222000       5.86206000       1.38008400       0.66155200      -3.64612400       1.51685240       0.73522207      -3.74552080
Si       8.06432000       7.52318000       8.55473000       2.36409700      -3.06603600      11.34847700       2.71934744      -2.77447587      11.17640061
18
Lattice="6.5 0.0 0.0 0.0 6.5 0.0 0.0 0.0 6.5" Properties=species:S:1:pos:R:3:REF_forces:R:3:MACE_forces:R:3 config_type=Fe12B3Si3 REF_energy=-113.87843945 MACE_energy=-113.07610533568965 pbc="T T T"
Fe       5.40234000       5.43492000       1.53729000      -1.39532100       2.04028400       0.71142300      -1.01179049       1.85327502       0.69883074
Fe       2.09750000       2.10361000       0.54730000       2.35673700      -0.33103000       1.27254800       2.53576194      -0.08235415       1.28552836
Fe       2.84360000       1.73250000       3.81271000       2.28004000      -1.18251600      -0.27344700       2.20651909      -0.97602923      -0.21096472
Fe       0.77541000       4.93717000       1.04317000       1.56096300      -3.83372900       1.76362000       1.26640427      -3.41417564       1.56101046
Fe       0.07665000       3.70431000       3.74351000      -0.75952900      -0.39175400      -2.23189700      -1.16293994      -0.48078701      -2.26572444
Fe       4.77171000       3.58949000       4.78220000      -1.99219600      -4.62409700       0.48420500      -1.66096941      -4.50914279       0.38568087
Fe       4.12430000       1.49867000       1.46476000       0.29771700      -2.38794700       0.28396300       0.28421819      -2.65352572       0.10437327
Fe       0.95387000       5.17746000       5.28728000      -0.57085000      -0.50160400      -1.80733600      -0.93797332      -0.68564593      -1.34860723
Fe       1.93602000       3.09888000       2.36598000      -0.08855100       0.43128300      -0.27209000      -0.21695308       0.50460789      -0.56848108
Fe       5.69037000       1.28357000       4.20026000      -0.40866000      -0.49067900       0.18976600      -0.80821953      -0.30484329       0.24401670
Fe       1.94321000       2.86141000       5.39871000      -0.55906500       0.73218900      -1.80086600      -0.48337583       0.68362654      -1.92123434
Fe       4.33122000       5.38124000       5.25469000      -0.73272900       4.56545400       1.52017900      -0.57604384       4.34267350       1.54576073
B        0.37598000       1.64060000       1.21420000      -3.21263000       2.85095800       0.76078000      -3.01777346       2.71263941       0.85822777
B        1.88110000       4.04794000       3.96741000       2.48956600       2.45119300      -0.32261600       2.67636152       2.39905799      -0.28533553
B        3.63878000       0.94242000       5.41981000      -0.01444500       0.67937600       0.95779200       0.13880854       0.82058671       1.10593084
Si       1.19380000       0.26963000       0.19686000       0.54051800       0.24528300      -1.93219100       0.64604294      -0.01774511      -1.85667711
Si       4.57825000       3.47658000       1.16117000       0.15934200       1.26766700      -0.81102600       0.18553785       1.48022321      -0.77940501
Si       1.09558000       0.76720000       2.75124000       0.04909300      -1.52033200       1.50719200      -0.06361544      -1.67244140       1.44706973
54
Lattice="8.579999685 0.0 0.0 0.0 8.579999685 0.0 0.0 0.0 8.5799996" Properties=species:S:1:pos:R:3:REF_forces:R:3:MACE_forces:R:3 config_type=Fe34B10Si10 REF_energy=-356.0869274 MACE_energy=-356.9687206848138 pbc="T T T"
Fe       0.92877000       1.08311000       2.12831000      -0.53214900      -1.15432400       0.53007800      -0.70801088      -1.20021583       0.40898303
Fe       1.12794000       0.45096000       7.37327000      -2.86345100       2.18226700       1.45805300      -2.83212219       1.97101705       1.44982054
Fe       0.91289000       3.61082000       1.96264000      -1.66570100       0.50807500      -4.76654600      -1.69730274       0.35543607      -4.78241836
Fe       0.97242000       3.25012000       3.83975000      -0.85629000      -1.23507100      -0.91491200      -1.07093528      -1.22152975      -0.21663079
Fe       1.43574000       3.84332000       5.84621000      -1.94378300      -0.72872400       4.94145300      -2.07213899      -0.60387959       4.67749109
Fe       0.45897000       5.99881000       1.32384000       1.86679900       1.45939200      -0.33976700       1.63243947       1.53999016      -0.16319326
Fe       0.05714000       6.25044000       6.01250000       0.66851500      -0.88142700       1.67028200       0.71224289      -0.77091819       1.73436632
Fe       1.87526000       7.05991000       7.27744000      -5.90957000       6.81146600       5.95768600      -5.75658386       7.22053306       5.97627442
Fe       4.21220000       0.80536000       3.81626000       0.44958900      -1.97725700       0.54591300       0.50401534      -1.90272028       0.44091621
Fe       2.64196000       0.75311000       5.88605000       0.80305000      -0.92688600      -1.50973400       0.53211215      -1.04723084      -1.57284363
Fe       2.51735000       4.27963000       7.86001000      -0.17185400       2.88247300       0.00075600       0.00037098       2.95919348       0.19469255
Fe       2.46175000       4.76211000       4.38544000       2.27245000       6.36429500      -0.60000700       2.17897765       6.32388363      -0.66855532
Fe       3.99132000       4.46692000       6.09268000      -0.21521200      -1.96607600      -0.25853400      -0.17935134      -2.23889916      -0.19798054
Fe       4.03283000       6.20484000       2.50717000       0.32509400      -1.83048700       1.07686200       0.41717236      -1.76174426       1.09370428
Fe       2.62183000       8.12097000       1.25125000      -5.45108600      -1.04608100      -0.88869000      -5.50638385      -1.11193052      -0.63090890
Fe       2.34208000       7.49949000       3.33705000      -1.45221900       0.10179900       1.96325000      -1.24467088       0.18685694       1.62740786
Fe       4.67554000       0.98699000       8.35162000       1.97529500       0.95938300       0.07305200       1.66670144       0.84592786       0.34508402
Fe       4.68615000       2.28426000       1.60336000       6.03713100       4.39249100       1.56082500       6.23892451       4.33306092       1.16530366
Fe       4.95897000       4.28949000       0.91503000       1.24258400       3.77490300      -1.07876200       0.78157302       3.54293786      -1.24887943
Fe       5.62605000       3.84953000       3.25301000      -4.56775200       3.43217100       2.09526400      -4.54106049       3.53886012       1.89690252
Fe       5.63153000       5.70233000       4.67966000       0.04558900       0.36352900      -0.74034800       0.01839655      -0.05258770      -0.59816573
Fe       5.00954000       6.14620000       6.89198000       4.51113600      -2.60361300       1.43664400       4.57021387      -2.37773469       1.42700208
Fe       5.34723000       7.32984000       0.56425000       3.41130600      -7.55812200      -7.44238600       3.42885295      -7.00724986      -7.21356862
Fe       4.57141000       8.20633000       1.67615000      -2.51651100       6.57056000       9.11650700      -2.67379965       6.06479877       8.66460309
Fe       5.67084000       7.83697000       6.02451000      -0.02983000       3.57151200       0.33120700      -0.06668707       3.62752578       0.35594452
Fe       7.65837000       1.05332000       0.64336000       1.95813700       2.93603900      -3.62028800       1.88866594       2.94154337      -3.54194044
Fe       7.23579000       1.49494000       3.62009000       0.88838800      -1.50203300       3.00240400       0.95376440      -1.51597408       3.06849051
Fe       6.96409000       1.59543000       6.70415000       0.40175100      -2.57633900      -0.54943900       0.51894075      -2.54131804      -0.55616431
Fe       6.97946000       3.05325000       2.27831000       3.01329100      -2.85779700      -7.80747400       2.45298560      -2.94357226      -7.25448810
Fe       7.05854000       3.62734000       7.13255000       0.94483300       2.42104600       2.56329500       1.03325253       2.47460230       2.49582184
Fe       7.47490000       4.49325000       0.92243000      -3.13561000       0.06366500       0.11142200      -2.89654678       0.45851245      -0.21946490
Fe       7.76499000       5.40883000       4.05655000       3.42051700      -2.49950500       1.10150300       3.49376055      -2.65325326       1.11165669
Fe       6.91686000       6.16423000       2.38917000      -4.34160700       0.52717700      -3.24358900      -4.31663246       0.59958189      -3.19739695
Fe       7.31773000       7.39473000       4.73130000      -1.41907300       3.06948200       1.38572900      -1.46352750       3.02439128       1.38587047
B        1.63947000       5.44017000       2.85377000      -1.37965300       1.67099600      -0.34434500      -1.51295631       1.77987031      -0.60522923
B        3.47444000       1.29905000       1.69513000      -6.04542900      -7.46227000      -1.52467000      -5.89205554      -7.18479073      -1.13970726
B        2.31673000       1.42955000       3.77944000      -1.85652800      -2.14982900       3.21956500      -1.72297409      -1.99006510       3.45152738
B        3.17088000       0.01260000       8.16689000      -2.14308300      -0.12737100      -3.63430700      -1.99499748       0.11009574      -3.57951966
B        2.48887000       2.23189000       2.44876000      -1.30373000       3.96631200      -0.94871100      -0.89792343       3.84495931      -1.29201199
B        3.55016000       3.21990000       0.17024000       2.13469500      -3.52588700       0.23974700       2.15923907      -3.43928589       0.30463838
B        3.12966000       3.07291000       4.24572000      -6.99085300       0.34377600      -0.16579100      -7.13218809       0.13622501      -0.19455454
B        2.38358000       5.95301000       6.34325000       2.25901800      -8.76611800      -6.31465800       2.18187092      -9.23056838      -6.58058601
B        4.46260000       2.62992000       4.23823000       7.08507900      -1.75449200       0.40993300       7.20297197      -1.83393401       0.45542179
B        7.51183000       3.59374000       3.85724000       1.49621300      -1.20378300       3.39561400       1.54067839      -1.09265345       3.24048414
Si       0.50050000       1.66927000       5.10425000      -1.02554400      -2.67263500       2.61432900      -0.79744499      -2.91178527       2.59763923
Si       0.41923000       4.50138000       8.15701000       0.82744200      -0.47721100      -2.57541600       1.06282104      -0.40739767      -2.83427465
Si       2.90131000       4.25049000       1.93860000       2.71957100       0.04497600      -0.88170100       2.90264645      -0.02362589      -1.08198882
Si       3.74353000       6.85388000       5.19884000      -1.20766000       1.80214700      -2.20114300      -1.06949780       2.04979675      -2.15293581
Si       3.54209000       6.47938000       8.21357000      -0.45014500      -1.75854100       4.24377300      -0.54152400      -2.00124203       4.44554119
Si       4.55252000       1.74669000       6.40118000       0.28733400       0.20348600      -1.69136000       0.25804131       0.14954110      -1.64511683
Si       5.87020000       3.30923000       5.41310000       1.93974000       0.55942400      -1.14043100       1.57128668       0.77132207      -1.08481105
Si       6.68392000       0.09389000       2.07850000      -2.78148600      -1.30329400       2.70552900      -2.46926208      -1.24137531       2.82008806
Si       7.30980000       7.36953000       0.08595000       4.18267400      -0.22507900      -1.67891000       4.11958531      -0.51652635      -1.67647100
Si       8.41387000       7.50606000       2.97540000       5.08859000       1.78741200      -0.88875800       5.03407368       1.97354513      -0.90586969
54
Lattice="8.579999685 0.0 0.0 0.0 8.579999685 0.0 0.0 0.0 8.5799996" Properties=species:S:1:pos:R:3:REF_forces:R:3:MACE_forces:R:3 config_type=Fe34B10Si10 REF_energy=-359.84864784 MACE_energy=-360.303057918866 pbc="T T T"
Fe       0.39531000       2.37288000       0.87042000       3.27925500       2.43832800      -1.60261100       3.21482315       2.68996397      -1.77673434
Fe       0.75383000       1.65209000       3.11094000       1.30783500      -0.34615400      -0.09267000       1.28466343      -0.85885345       0.12484298
Fe       1.33201000       3.79282000       7.26231000      -2.40668100      -1.18131200       0.32245500      -2.54656160      -1.09455228       0.24302238
Fe       0.64436000       4.41396000       2.97573000       2.42004200      -2.26182600       0.38963900       2.48754378      -2.09799462       0.27495917
Fe       0.14751000       6.42079000       3.51005000      -3.07002100       1.32407200      -2.30638400      -3.09836601       1.31922236      -2.44685258