18
Lattice="6.5 0.0 0.0 0.0 6.5 0.0 0.0 0.0 6.5" Properties=species:S:1:pos:R:3:REF_forces:R:3:MACE_forces:R:3 config_type=Fe12B3Si3 REF_energy=-122.60259194 MACE_energy=-120.60478384634175 pbc="T T T"
Fe       5.09292000       4.71692000       1.17657000      -0.43533200      -0.51500600      -0.95471400      -0.36439609      -0.24870449      -0.49400512
Fe       5.77166000       0.42197000       5.05407000      -0.02893800      -0.71596500       0.04838100       0.05724947      -0.73743896       0.28224487
Fe       5.13387000       2.35523000       3.84734000      -1.89765700      -0.10869600       1.91264400      -1.86782612       0.10289844       1.57267536
Fe       4.28586000       4.44305000       5.45001000       0.16330100      -0.45505100      -0.78988200       0.22669199      -0.27264995      -0.91439814
Fe       1.94340000       5.71942000       3.43498000      -0.80849200       0.79590200      -1.52941800      -0.78336284       0.82910741      -1.60935286
Fe       2.23403000       5.41245000       5.55948000       0.02203500       1.10579100       1.46023700       0.02663734       0.98238078       1.32829950
Fe       6.31948000       3.13845000       2.34683000       1.54883600       0.55665100      -0.85220000       1.54145979       0.92952396      -0.67287565
Fe       4.04920000       1.84413000       0.54644000       0.54070000       0.26521300       0.10478400       0.55498403       0.16569432       0.16715254
Fe       6.03875000       2.85985000       6.10045000       0.55348700      -0.00632300       0.45841600       0.67652571      -0.28614115       0.20480657
Fe       0.58685000       1.29742000       1.31584000      -2.59691900      -1.19344800       0.74087100      -2.48253125      -1.55606026       0.87427307
Fe       4.91298000       0.15320000       2.42984000      -0.06700500       1.23581300      -0.27632200      -0.24889916       0.92881448      -0.39030085
Fe       1.93111000       3.24513000       0.71062000       0.70722800       0.46984000      -0.28427000       0.73291840       0.64592054      -0.20447671
B        2.37195000       1.25222000       1.40537000       1.65160600      -0.35926700       0.26079300       1.61207459      -0.24980122       0.29714860
B        0.08066000       0.99775000       3.29118000       0.16566700      -0.31648400      -0.67714100       0.17351733      -0.18482949      -0.63954640
B        3.93898000       5.93711000       3.88036000      -0.16859400      -0.37277700       1.63812600      -0.35212251      -0.58826321       1.77416655
Si       1.06372000       3.69612000       4.51440000      -0.53709400      -0.15329500      -0.11394200      -0.47694174      -0.14910860      -0.25900808
Si       1.71394000       1.26695000       5.84256000       0.03292600      -0.14907500      -1.01285500      -0.02099475      -0.14570007      -1.22845033
Si       3.33060000       3.91426000       2.72453000       1.15424600      -0.08382500      -0.13350900       0.99501579      -0.16564252      -0.08835293
18
Lattice="6.5 0.0 0.0 0.0 6.5 0.0 0.0 0.0 6.5" Properties=species:S:1:pos:R:3:REF_forces:R:3:MACE_forces:R:3 config_type=Fe12B3Si3 REF_energy=-121.31244081 MACE_energy=-119.55911628668417 pbc="T T T"
Fe       1.54567000       5.09347000       2.96054000      -0.05755400       0.22926400       0.19630700      -0.09433541       0.34620271       0.17342941
Fe       5.37031000       4.33464000       3.33914000      -0.58258500       0.74000300       1.13110700      -0.76728506       0.81241063       1.13851188
Fe       3.42840000       1.36213000       4.29281000      -1.01656700       0.10268700       0.03844400      -1.07863032       0.00212735       0.07584435
Fe       3.57265000       3.88513000       0.65516000       0.30850200       1.33476100       1.08278900       0.74375602       1.26508615       0.97866285
Fe       1.41689000       0.59785000       1.78345000       0.74253900       0.82871700       0.20224800       0.87926290       0.95140261       0.42078331
Fe       0.97121000       3.19177000       4.49857000      -0.23778700       0.31663600       0.49523500      -0.29452653       0.29737626       0.41977802
Fe       0.10960000       3.90804000       1.55392000       0.39793300      -0.41835000      -0.70952800       0.38406305      -0.49447421      -0.81707634
Fe       3.14656000       3.96526000       4.20821000       0.80956500      -0.29266500       1.03843300       0.95091744      -0.33065555       1.00915153
Fe       5.48304000       3.37518000       6.03157000       0.56050000      -0.52763000      -1.40935100       0.32681391      -0.58568928      -1.02044029
Fe       3.88217000       0.69368000       1.82654000      -1.75284600       0.65177800      -1.13448000      -1.83542706       0.60875420      -1.11999446
Fe       1.77093000       2.74360000       0.38456000      -0.62318100      -1.15549800      -0.16030100      -0.92673513      -1.30950662      -0.23143984
Fe       6.43892000       5.63221000       5.07465000      -0.92523200      -0.35829100      -0.46582300      -0.57008535      -0.22984654      -0.30574249
B        4.32987000       5.76823000       4.64532000      -0.20450600      -0.71291100      -0.34975500      -0.25831476      -0.74921943      -0.34725597
B        4.86401000       0.31075000       3.35677000       1.37279600      -1.05687500       1.71697400       1.40851690      -0.87131222       1.57109236
B        1.72795000       2.62743000       2.69252000       0.25169800      -0.16894100      -0.71378200       0.26683807      -0.17834523      -0.63595998
Si       5.92922000       1.16658000       0.91137000       0.17077100       0.77306600      -0.40821800       0.09524051       0.87058737      -0.54004962
Si       1.55137000       0.52682000       5.95862000       0.76711600       0.45167400      -0.21249400       0.72552093       0.38909432      -0.40271615
Si       0.23429000       1.22377000       3.73067000       0.01883900      -0.73742700      -0.33780600       0.04440989      -0.79399250      -0.36657857
18
Lattice="6.5 0.0 0.0 0.0 6.5 0.0 0.0 0.0 6.5" Properties=species:S:1:pos:R:3:REF_forces:R:3:MACE_forces:R:3 config_type=Fe12B3Si3 REF_energy=-119.7015825 MACE_energy=-117.94709224425571 pbc="T T T"
Fe       0.61406000       3.48190000       4.00853000       0.05000800       0.69203900      -0.65899000       0.12078080       0.70113878      -0.63193141
Fe       4.97626000       0.76382000       4.44673000      -0.35037700       1.47026600       0.84275300      -0.13059951       1.28100426       0.88809846
Fe       3.34553000       4.74129000       4.52266000      -0.04235300       0.38767900      -0.51635200      -0.11713216       0.51639442      -0.58465366
Fe       2.72320000       4.03412000       2.53731000       0.14210100      -0.10011400      -0.31343200       0.16163501      -0.05555335      -0.30898595
Fe       0.83336000       4.50867000       1.52689000      -1.17306600       1.62258800       0.10072700      -1.36052522       1.30343700       0.08505185
Fe       0.92240000       1.42661000       5.10358000       0.70633700       0.51501800       0.05106700       0.68007011       0.39267486       0.06459382
Fe       5.37460000       5.19700000       3.85308000       1.71590800      -0.94477900      -1.05904100       1.56216005      -0.80012793      -0.92363529
Fe       1.59919000       5.65956000       5.19133000      -1.80142700       0.34157800       0.33855300      -1.66812630       0.23056038       0.24539815
Fe       1.42206000       0.28899000       2.84488000      -0.46217700      -0.05934400      -0.48497300      -0.75501172      -0.01942528      -0.63500470
Fe       0.14336000       0.29234000       0.36155000       0.19959000      -0.37895800       0.35421900       0.35856719      -0.25709367       0.40477484
Fe       4.01865000       3.23019000       5.76943000       0.89386800      -0.42884300       1.55421800       1.06176326      -0.34654508       1.67128291
Fe       5.37081000       1.08656000       2.03514000      -0.92791000      -0.01223000       0.80912400      -0.81699613       0.10935429       0.83317419
B        2.67090000       1.02966000       4.10204000       1.31464700      -0.52838700       0.81909000       1.23892263      -0.52825472       0.92727240
B        3.04001000       2.23804000       1.93097000       0.69846800      -0.94741100       0.43315700       0.60634839      -0.93870462       0.36424189
B        3.45335000       1.43986000       5.58522000      -0.99169000      -0.73456400      -1.02779300      -1.30144636      -0.69152706      -1.19591157
Si       5.04048000       3.39294000       2.10200000      -0.29496400       0.38301900       0.21545600      -0.09095346       0.43619612       0.03388493
Si       5.63077000       4.87350000       6.41151000      -0.48492700      -0.59127500      -1.23672100      -0.29519738      -0.66490722      -1.19194247
Si       0.92620000       2.28662000       1.33607000       0.80796400      -0.68628200      -0.22106200       0.74574081      -0.66862116      -0.04570838
18
Lattice="6.5 0.0 0.0 0.0 6.5 0.0 0.0 0.0 6.5" Properties=species:S:1:pos:R:3:REF_forces:R:3:MACE_forces:R:3 config_type=Fe12B3Si3 REF_energy=-121.85787139 MACE_energy=-119.9014313774388 pbc="T T T"
Fe       3.74522000       1.93951000       3.03104000       0.15344600      -1.30313800       0.57095700      -0.15015260      -1.38694249       0.73627337
Fe       5.13632000       4.25308000       0.92736000       1.61810900       1.29717800      -0.09026100       1.70125544       1.24549001      -0.13139756
Fe       2.38772000       3.64647000       1.36253000       0.34718900       0.24437500       0.26687600       0.08068525       0.19397127       0.37573905
Fe       4.52682000       2.03507000       0.88629000       0.10309200      -0.28281500      -0.32066600       0.18819744      -0.26390175      -0.55782927
Fe       0.72889000       5.71397000       0.71694000       0.39426700      -0.05723500      -0.70851200       0.42004272      -0.08456252      -0.63727398
Fe       1.28004000       2.60278000       3.63876000      -0.05139800      -0.26602100      -0.17015500      -0.11273402      -0.52018157      -0.17067476
Fe       4.25735000       4.17533000       2.99842000      -0.51788500      -0.00171000       1.38499700      -0.41073600       0.24380101       1.40447783
Fe       5.17853000       0.17226000       2.33142000       0.65502400      -0.75404400      -0.07820000       0.71014796      -0.78725014       0.03110759
Fe       3.30921000       2.19924000       5.35160000       0.29955200      -0.43084800       0.01416400       0.22553773      -0.83986460      -0.00682580
Fe       5.15839000       5.82552000       4.66434000      -0.09919600       0.87520900       0.22737800      -0.01119899       0.78197367       0.22336717
Fe       0.99579000       3.32661000       5.82380000      -0.58192300      -0.10817300       0.50157800      -0.41915922       0.12517198       0.59521587
Fe       3.66613000       4.36288000       5.83709000      -1.35170800       0.84645900      -0.30712200      -1.09264387       1.11205849      -0.37116089
B        2.84060000       0.39334000       4.32751000      -0.35193100      -0.06164300      -0.39291200      -0.41989156      -0.01970447      -0.40534652
B        1.64536000       1.24443000       5.37304000      -0.64125300       0.06658900       0.28190300      -0.56323056       0.19685234       0.15894116
B        5.94501000       1.69280000       3.57914000      -0.18823400      -0.20229800      -0.92962600      -0.30981786      -0.11564154      -0.99374540
Si       1.95275000       4.93141000       4.29137000       0.04269600       0.05062900      -0.61354000       0.03061380       0.21887191      -0.67534260
Si       1.17675000       0.50357000       2.60680000      -0.03007500       0.17892800       0.39125200      -0.13967905       0.06540510       0.45616137
Si       3.01916000       0.15396000       0.36058000       0.20022900      -0.09144200      -0.02811200       0.27276337      -0.16554669      -0.03168663
18
Lattice="6.5 0.0 0.0 0.0 6.5 0.0 0.0 0.0 6.5" Properties=species:S:1:pos:R:3:REF_forces:R:3:MACE_forces:R:3 config_type=Fe12B3Si3 REF_energy=-123.17032223 MACE_energy=-121.19321689654345 pbc="T T T"
Fe       2.06128000       1.35192000       5.56271000       0.18198700      -0.16204600       0.32079200       0.22215459      -0.17534167       0.07329828
Fe       0.20628000       0.74352000       0.47533000      -0.01212900      -1.80057200       0.81247600      -0.13632045      -2.02758231       0.84915205
Fe       4.21352000       4.38008000       1.14975000       0.22760200      -0.36679400      -0.09969700       0.34832952      -0.44460040      -0.05724969
Fe       2.54249000       3.63216000       4.72939000       1.19327500      -0.66455700       0.07221400       1.08993475      -0.49948451       0.13122811
Fe       3.83205000       5.53820000       4.79909000       0.51612300       1.20124600       0.12884600       0.37725343       1.08961742       0.04480512
Fe       5.42994000       1.39640000       2.52309000      -0.42467600       2.12164400      -0.14102300      -0.20337009       2.24952950      -0.05193032
Fe       5.04777000       3.40995000       5.34287000      -0.21348800       0.67090800       0.05014900      -0.04403244       0.83534290      -0.03170850
Fe       4.02538000       0.24009000       0.60478000      -0.67052300       0.23330400      -0.82188900      -0.57880321       0.25061923      -0.83896018
Fe       5.70945000       1.27912000       5.05205000      -0.15485500      -0.64748300      -0.75514100      -0.20286091      -0.82449692      -0.88578932
Fe       1.92991000       4.99192000       1.74667000       0.17963600      -0.15990000       0.40814400       0.04176576      -0.16173362       0.46281260
Fe       1.43771000       1.03607000       3.08283000      -1.21763900       0.01257600       0.14875200      -1.24753464       0.02935286       0.33953614
Fe       0.86801000       4.47220000       6.13084000      -0.41825400       0.29579200      -0.15826700      -0.49189548       0.32315611       0.09547101
B        2.11019000       0.52917000       1.24201000       0.09094000       0.18445000      -0.68560600       0.23101779       0.23772780      -0.56055042
B        4.85706000       2.12229000       0.43616000       0.59367600      -0.04809400       0.32134000       0.62470239      -0.15710385       0.29963908
B        4.77818000       6.22659000       2.28373000      -0.06851400      -1.72155000       0.50330900      -0.15397674      -1.79889805       0.25059352
Si       3.22130000       2.33163000       2.83281000       1.18133600       0.37223400      -0.18261100       1.16810865       0.41616801      -0.17842065
Si       0.66472000       2.69680000       1.28352000       0.35904800       1.34635600       0.36533200       0.38010061       1.45495552       0.29842139
Si       0.57749000       3.56144000       3.74467000      -1.34354500      -0.86751400      -0.28711800      -1.42457353      -0.79722803      -0.24034820
18
Lattice="6.5 0.0 0.0 0.0 6.5 0.0 0.0 0.0 6.5" Properties=species:S:1:pos:R:3:REF_forces:R:3:MACE_forces:R:3 config_type=Fe12B3Si3 REF_energy=-121.03497159 MACE_energy=-119.23192718101907 pbc="T T T"
Fe       1.44158000       5.30001000       3.73990000       0.80024600       0.97127900      -0.80130000       0.84728471       0.83836168      -0.70018995
Fe       4.76448000       5.46703000       0.81860000      -0.12557700      -0.35798900      -1.48527900       0.18212348      -0.49011084      -1.20812666
Fe       4.93607000       4.01866000       4.50215000      -0.53630200      -0.06755300       0.28519800      -0.53821041      -0.11559484       0.22064246
Fe       2.54967000       4.74564000       1.15826000      -0.30791600      -0.46889400      -0.15805100      -0.38210736      -0.43035707      -0.43070347
Fe       0.34169000       3.61061000       2.35881000      -0.53529500      -0.58811100       1.00699100      -0.45109288      -0.32389713       0.98171186
Fe       2.35204000       1.58777000       2.07914000       0.57705800      -0.58459200       1.04343400       0.72394590      -0.58684619       1.03649116
Fe       0.62223000       1.04055000       5.16059000      -1.24617800      -0.24006500      -0.54335800      -1.22249741      -0.09931224      -0.54285184
Fe       2.51060000       2.14408000       4.43449000       0.07351100       1.18492700       0.27387000       0.12641793       1.14431355       0.16921419
Fe       0.54955000       4.27737000       5.47880000       1.11038600       0.55751700       0.11547900       1.20657743       0.68223137      -0.03360617
Fe       3.71982000       5.75480000       3.16466000       0.38624700       0.77644400       0.53907400       0.33512975       0.70050556       0.51541760
Fe       1.21496000       2.60205000       0.49559000       0.91097100      -0.21628300      -1.40025700       0.69734142      -0.23846563      -1.43790678
Fe       4.33544000       3.44997000       2.32066000      -0.11113800      -1.13838700      -1.07293100      -0.24466911      -1.12189436      -0.87370546
B        3.57517000       5.19498000       5.67296000       0.02909700       0.11803400      -0.79539700      -0.10495871       0.15596944      -0.71331639
B        3.19573000       2.72151000       0.39559000       0.66935000      -0.21215000       0.29819600       0.67688917      -0.23598037       0.25680909
B        5.29133000       1.80166000       3.36631000      -0.61772000       0.64460000       0.91903000      -0.47862968       0.64290160       0.73241772
Si       4.71818000       1.13888000       1.41442000      -0.10426200       0.47055800       1.10054900      -0.25810006       0.56013481       1.13972044
Si       4.28766000       1.00056000       5.32612000       0.59498300      -0.65540400      -0.44130900       0.64587271      -0.62436149      -0.30558625
Si       5.54384000       3.13095000       0.10152000      -1.56746300      -0.19393100       1.11606100      -1.76131687      -0.45759786       1.19356845
18
Lattice="6.5 0.0 0.0 0.0 6.5 0.0 0.0 0.0 6.5" Properties=species:S:1:pos:R:3:REF_forces:R:3:MACE_forces:R:3 config_type=Fe12B3Si3 REF_energy=-121.19386358 MACE_energy=-119.3418091967701 pbc="T T T"
Fe       5.14122000       2.95219000       5.73762000       1.07543100      -1.06473800       0.02092700       1.02596174      -0.67114768      -0.01408797
Fe       3.44786000       4.68004000       0.56712000      -1.37847800      -1.17368900      -1.22189300      -1.22790678      -1.25276966      -1.10935173
Fe       2.82511000       0.89193000       5.14374000       0.13259800       0.26355500       0.40255800       0.29822230       0.29626204       0.33364811
Fe       5.03673000       0.78459000       3.29286000      -1.26774300      -0.96440500       0.08926900      -1.17553050      -1.04263128       0.10285663
Fe       0.04417000       2.47999000       3.55018000       0.57964100       0.99759000      -0.45241400       0.38105542       1.00585265      -0.40651718
Fe       3.80021000       2.12637000       1.07746000       0.18867900      -0.22764200      -0.16605100       0.13789053      -0.15895489      -0.20024035
Fe       0.53180000       4.23439000       5.25038000       0.13821800       0.93416200      -0.11674800       0.15290355       0.88371034      -0.39552572
Fe       5.29502000       5.19686000       1.57483000       0.63888900      -0.01824700       1.31027900       0.55839484       0.21501678       1.48614891
Fe       4.81829000       5.67816000       5.38797000       0.86574200       0.53683900       0.64982300       0.70630041       0.53747216       0.85685393
Fe       0.56712000       1.81843000       0.78586000       0.14808100       0.22443800       0.34380200       0.15329257       0.03421361       0.38591614
Fe       3.21410000       3.62554000       4.76333000      -0.48471200       0.05504400      -0.37129100      -0.29420951      -0.12044716      -0.23892636
Fe       2.59511000       0.04657000       1.62822000      -0.15086800       0.20181900      -0.19923600      -0.12931902       0.08283580      -0.19498777
B        1.70005000       4.09276000       3.58297000       0.50063800      -0.74222000       4.89755200       0.54105652      -0.91293733       4.77941108
B        0.43268000       5.13544000       0.50731000      -0.62762600       1.39885300      -1.30398100      -0.61257304       1.42897591      -1.29853518
B        5.33026000       4.94544000       3.73632000       0.22606000      -0.48056500      -0.66320000       0.15150509      -0.46865439      -0.79103871
Si       2.28782000       2.00516000       2.88410000       0.36394600       0.12179600       0.89171700       0.27876200       0.15035508       1.06451213
Si       1.34690000       4.20152000       1.89580000      -0.46324100      -0.07460600      -4.35928800      -0.49684589       0.00018037      -4.43837185
Si       0.33802000       0.64631000       5.13835000      -0.48525500       0.01201700       0.24817700      -0.44896021      -0.00733235       0.07823589
18
Lattice="6.5 0.0 0.0 0.0 6.5 0.0 0.0 0.0 6.5" Properties=species:S:1:pos:R:3:REF_forces:R:3:MACE_forces:R:3 config_type=Fe12B3Si3 REF_energy=-121.83631974 MACE_energy=-119.74139104912916 pbc="T T T"
Fe       2.32189000       0.53919000       4.43628000       0.62348700       0.62161200      -0.30037500       0.66047400       0.48076788      -0.16696648
Fe       0.85962000       3.43397000       4.87265000      -0.12660300       0.92813600      -0.14204200       0.09587901       1.05292165      -0.09165900
Fe       3.14478000       3.12586000       5.02575000       0.59721000      -0.57204800       0.02419900       0.48263791      -0.67735507       0.22346692
Fe       5.60986000       1.49763000       1.76525000      -0.15598800       0.54195100       0.25919200      -0.08186203       0.54836086       0.33617649
Fe       1.35689000       1.02230000       1.46682000      -0.86025900      -1.50913200      -0.02236000      -0.91858375      -1.60824751       0.01250030
Fe       1.53652000       5.21131000       2.91051000       0.14684300       0.83240900       0.92372000       0.18780802       1.04129699       0.69673597
Fe       5.42176000       2.41204000       4.26359000      -0.63460300      -0.19320800      -0.86948000      -0.75889611      -0.34783740      -0.84759164
Fe       2.69083000       2.61526000       0.85844000       0.58099200       0.46413400      -0.42101400       0.57515563       0.48990522      -0.50705767
Fe       3.69565000       0.41570000       1.52873000      -0.38863400      -1.79496800       0.36436300      -0.42380289      -1.89114174       0.31350746
Fe       5.29642000       0.71728000       5.92537000      -1.13878800       0.21021100       0.33601900      -1.11100301       0.12333759       0.21155976
Fe       2.43404000       4.91723000       0.69122000      -0.67719900       0.42452500      -0.50222800      -0.75019655       0.53316902      -0.74071171
Fe       0.38184000       3.41911000       2.21740000      -0.05622500      -0.60860100      -0.28154900       0.00972749      -0.63052347      -0.37965726
B        0.60495000       2.82168000       0.18824000       0.45495900      -0.82411900       1.12072500       0.53841493      -0.77220773       1.28991284
B        4.46032000       5.11021000       0.86305000      -0.16597900       0.94437700      -0.17078000      -0.24141509       0.85257865      -0.08498215
B        4.50224000       0.61436000       3.35420000      -0.21081700       0.21979200       0.95013200      -0.07870896       0.37896878       0.98885092
Si       0.41559000       5.76097000       5.42597000       1.25807400      -0.80112100      -0.45097400       1.14772912      -0.83580212      -0.40003177
Si       5.04192000       3.28673000       0.17892000       0.12615100       0.01238900      -0.22951000      -0.01569846       0.09392731      -0.33067216
Si       3.63769000       4.96485000       3.77806000       0.62737900       1.10366300      -0.58803800       0.68234075       1.16788108      -0.52338083
18
Lattice="6.5 0.0 0.0 0.0 6.5 0.0 0.0 0.0 6.5" Properties=species:S:1:pos:R:3:REF_forces:R:3:MACE_forces:R:3 config_type=Fe12B3Si3 REF_energy=-121.52509482 MACE_energy=-119.59123474700863 pbc="T T T"
Fe       5.35369000       5.79500000       1.92697000       0.93009700       0.21272200       0.30334600       0.88609185       0.53565785       0.09270063
Fe       2.76775000       2.65119000       2.12707000      -0.32421800      -0.48392200      -0.17557400      -0.07619445      -0.58185408      -0.31583322
Fe       0.95782000       3.82419000       5.40578000       0.10971500      -0.17899400      -2.04142600      -0.08930069      -0.18869248      -1.79604189
Fe       0.03218000       4.37962000       0.68550000       0.11657700      -0.41259800       0.85513400       0.09246262      -0.51154069       0.61893116
Fe       1.84755000       0.88889000       3.81096000      -1.44375300      -0.68888000       0.86572800      -1.74482184      -0.63809794       0.74670320
Fe       1.16808000       4.93779000       2.52478000      -0.28262200       0.22668300       0.83147000      -0.18258314       0.24271993       0.88737152
Fe       4.57564000       3.78620000       5.52286000       0.47796700       0.02734200      -0.30762900       0.59791549       0.07987887      -0.07840322
Fe       1.78348000       1.76727000       0.19912000      -0.26827800       0.03695300      -0.74819700      -0.30647700      -0.14486062      -0.64988020
Fe       4.14268000       1.27653000       5.44637000       0.32298300       0.47804900       0.87136900       0.18244909       0.73956892       0.80817860
Fe       0.39350000       2.02322000       2.40882000      -0.76609100       0.51871000      -0.97730800      -0.78344169       0.55764107      -0.82619734
Fe       4.81568000       2.96526000       1.14778000      -0.14924600       1.24611400       0.04356300      -0.26610582       0.98457767       0.07354769
Fe       3.84539000       0.30930000       3.37137000       0.29154400       0.59907800       0.00228600       0.34614043       0.41246161       0.09815242
B        0.56106000       0.29730000       1.37744000       0.44563300      -0.18325700       0.09294600       0.53992652      -0.16324963       0.13382892
B        4.70692000       1.17670000       1.77222000       0.30524300      -0.18357100       0.58365200       0.36549698      -0.02312920       0.56275066
B        5.38157000       1.57638000       3.57119000      -0.67590100      -0.19578700       0.11893400      -0.53367251      -0.26440899       0.19624669
Si       1.82718000       5.79703000       6.49835000       0.39538000       0.26005200      -0.26180200       0.40961495       0.25666770      -0.29246038
Si       3.31810000       4.97491000       2.09981000       0.38303800      -1.16180900      -0.78364900       0.33474380      -1.31484339      -0.82460877
Si       2.73378000       2.94839000       4.34012000       0.13193200      -0.11688600       0.72715900       0.22775541       0.02150340       0.56501355
18
Lattice="6.5 0.0 0.0 0.0 6.5 0.0 0.0 0.0 6.5" Properties=species:S:1:pos:R:3:REF_forces:R:3:MACE_forces:R:3 config_type=Fe12B3Si3 REF_energy=-121.02444435 MACE_energy=-118.90301401366071 pbc="T T T"
Fe       1.39149000       2.20308000       5.17931000      -1.09901500       0.96004600       0.36173300      -1.39075393       1.02376670       0.39723539
Fe       3.62747000       4.68659000       1.02510000      -0.06982100      -3.26377800      -2.89944800      -0.04453835      -3.34302019      -2.90638004
Fe       1.80395000       3.40407000       2.57062000       0.23159400      -1.19456800      -0.45276000       0.42730374      -1.06697602      -0.28684572
Fe       2.94213000       0.60236000       5.71573000       0.15339300      -0.69866300       0.64874700       0.09367897      -0.78916054       0.75710973
Fe       5.38115000       2.52906000       6.43321000      -0.23682700       0.12156600      -0.19922500      -0.16490292       0.07448084      -0.16481764
Fe       0.12195000       6.11226000       5.45936000      -0.39712500       0.65309400      -0.05083800      -0.27688391       0.82628150       0.09628170
Fe       4.34835000       1.98723000       2.40957000      -1.01480500       0.74572900      -0.29346500      -1.11163351       0.75601841      -0.42518481
Fe       1.53424000       4.10029000       0.18089000      -0.42864200       1.56111100      -0.02192200      -0.38100002       1.54564565      -0.10237166
Fe       0.31466000       0.53942000       1.14637000       0.10838100       1.15710500      -0.20059100       0.33118940       1.14285999      -0.41752951
Fe       0.47952000       5.25453000       2.73419000      -0.30982000      -0.02579600      -0.14735200      -0.53698283      -0.21484958      -0.19605029
Fe       4.50027000       0.31801000       0.96733000       0.32284000      -0.13474100      -0.50344800       0.17753206      -0.35145221      -0.51839400
Fe       1.70353000       0.42976000       3.75274000      -0.32967600       0.43159600      -0.88117700       0.08673023       0.38065856      -1.29694296
B        6.18518000       4.55381000       4.41125000      -0.17318900      -1.03892600       0.51683300      -0.14111119      -1.01734449       0.54613903
B        2.12650000       0.37704000       1.77055000       1.33709500      -0.20335800      -0.64256200       1.20474438      -0.10590574      -0.53143056
B        0.73517000       2.44792000       0.79322000       0.36639400      -0.14615100       0.11805600       0.28825754      -0.23719988       0.15098051
Si       3.51439000       5.61877000       2.79115000      -0.45728700       1.49076800       4.26033400      -0.46497735       1.57718489       4.44444498
Si       4.26138000       4.96562000       5.31398000       0.76080200       0.01330700      -0.27175900       0.78571214       0.17229663      -0.29152378