54
Lattice="8.579999685 0.0 0.0 0.0 8.579999685 0.0 0.0 0.0 8.5799996" Properties=species:S:1:pos:R:3:REF_forces:R:3:MACE_forces:R:3 config_type=Fe34B10Si10 REF_energy=-352.89092233 MACE_energy=-352.8584631276751 pbc="T T T"
Fe       1.46495000       0.71583000       1.12880000       3.73230100      -3.41607500      -3.76209700       3.31107667      -3.10547261      -2.99154099
Fe       0.56244000       2.07917000       1.96452000      -3.31290700       4.06628900       2.54508600      -3.26034649       3.59886820       2.20485052
Fe       0.86636000       2.12990000       5.00906000     -10.85567700      -2.87102900      12.20968700     -10.71164464      -2.73026541      12.22348988
Fe       0.24697000       2.61233000       7.83061000      -0.37811800      -2.03816900      -0.08744800      -0.35233222      -1.89182122       0.07669794
Fe       0.35437000       4.66395000       8.16447000      -1.30300600       1.62250000       0.84662400      -1.24858480       1.62252914       0.80942870
Fe       0.83543000       8.00840000       3.01492000       5.54921000      -2.55787300       0.52513800       5.62292664      -2.72270861       0.45351230
Fe       2.03952000       7.84431000       6.63062000      -4.28706100       1.82495200      -1.68802900      -3.83261096       1.76085526      -1.72969140
Fe       3.34318000       0.11090000       2.96052000      -0.46571400      -0.35056300       0.37864800      -0.71524621      -0.10238263       0.39941828
Fe       3.26317000       2.11539000       1.48699000      -3.47884800      -0.03222100       0.61542300      -3.50429211      -0.11114127       0.03692936
Fe       4.14313000       2.75755000       3.31065000      -0.71378000      -2.73118300       1.93004800      -0.53449031      -2.09641779       1.82169365
Fe       2.55051000       2.67374000       7.19710000      -2.55215900      -0.93589000       1.77261600      -2.22155285      -0.80396115       1.66910309
Fe       3.61327000       2.86500000       5.46497000       1.55763200       0.20514300      -0.56676300       1.39437050       0.21601595      -0.34710849
Fe       2.62400000       4.72550000       1.39174000      -1.08585200      -1.19598700       0.59645400      -1.13056257      -0.97000858       0.62495678
Fe       2.20317000       5.21693000       3.87451000      -3.92870900      -4.38103900      -4.92199500      -3.91294000      -4.59238079      -5.29920585
Fe       3.93082000       4.37819000       8.08226000       1.07616800       0.44807800      -0.99700400       1.12371454       0.25181549      -0.63750742
Fe       2.44961000       7.01753000       1.08943000       0.32119000      -1.55635000       3.27006500       0.54344340      -1.52781408       3.23741202
Fe       3.02500000       6.15780000       5.08193000      -1.08486800       1.64126100       3.95415400      -0.06920389       1.79068402       4.54426629
Fe       5.77712000       0.44616000       0.16142000      -2.43333700       0.07175000       4.13474700      -2.15599259       0.23600397       4.28555969
Fe       5.66964000       0.14892000       2.95259000      -3.67617900       1.90971100       0.12919700      -3.55947833       1.91023053       0.32894248
Fe       5.39484000       2.66317000       1.55162000       4.08183700      -3.39937100       3.88213200       4.08165418      -3.69625493       4.27109946
Fe       5.91309000       3.40423000       8.31953000       8.90196200       5.48305700      -2.72562400       8.48694793       5.51325133      -3.48751500
Fe       4.96126000       4.63305000       3.41410000      -3.60269200      -2.00302700       2.25051900      -3.48014769      -2.57791915       2.74099164
Fe       5.11347000       6.81217000       1.78872000      -0.87770500       0.06714300      -1.61156800      -0.76124169       0.30803701      -1.79041654
Fe       5.00950000       6.45991000       8.24507000      -2.30619500      -0.19808200      -1.52355700      -2.24027625      -0.34763001      -1.70949648
Fe       4.64263000       7.71190000       5.75084000       2.50156800       4.23919200      -1.55456800       2.45802436       4.34900737      -1.74366141
Fe       7.32285000       0.33022000       5.03535000      -0.99210900      -0.59745100       4.73628300      -1.00613868      -0.58316298       4.38684533
Fe       6.75330000       1.32958000       7.05071000       0.53851300       2.01290400       0.36400700       0.46981914       1.89847210       0.58070093
Fe       6.82686000       2.53028000       3.66692000      -0.08907100      -0.12987400      -0.26318300       0.13593687      -0.22226383      -0.21568522
Fe       6.83617000       5.56618000       0.59386000       1.74434500       1.47371700      -3.32847200       1.34095938       1.30551748      -3.29164722
Fe       8.27091000       4.29855000       2.87718000       3.23308900       0.33980500       1.37352500       3.06358459       0.29201879       1.37285381
Fe       6.58774000       4.90718000       4.97515000      -1.87594500       0.58060600      -0.05143700      -2.31905511       0.79179531      -0.63670410
Fe       6.86773000       6.79187000       3.27473000       1.52763600      -2.76254700       0.67579100       1.60062552      -2.54922245       0.33031737
Fe       8.09083000       8.29691000       0.84396000      -4.18921500      -1.95965200       9.56442300      -4.14965552      -2.13512245       9.68006579
Fe       6.62133000       7.67903000       7.47205000      -3.65417600       1.51975600      -3.32990400      -3.91033206       1.11663024      -4.01563641
B        3.45077000       6.81738000       6.75435000       2.04131500      -2.79808300       3.80923700       2.01872143      -3.07925022       3.94664945
B        4.67436000       1.10514000       4.73414000       0.75036200       0.95391600      -0.52852700       0.74529791       0.66397609      -0.36156994
B        6.18153000       2.20088000       5.47737000      -4.49435700      -3.20609500      -2.27763700      -4.42704355      -2.97758692      -2.58000828
B        5.08133000       4.10197000       6.35983000       0.35152900       0.25548900      -0.65354500       0.44362461       0.59799168      -0.29709560
B        4.48663000       4.29393000       1.40792000      -0.27448100       1.04603100       0.21283300      -0.21055208       1.32069349      -0.08574270
B        4.96286000       5.88068000       6.14703000       0.60492000      -1.85032800       0.29314600       0.19732030      -1.84278660       0.30280043
B        8.17242000       5.65216000       5.55863000       1.00443800       0.65677900      -0.69824300       1.61592290       0.27430429      -0.34934980
B        7.98743000       6.92663000       6.60530000       5.86774900       2.58695800      -4.05103700       5.36323895       2.52859294      -3.23952983
B        7.10769000       5.72812000       6.91109000      -2.33709700      -3.34606800       1.34633400      -2.58909866      -3.35925767       1.42775996
B        7.81665000       6.81498000       8.33858000       5.04350100      -2.41043400       0.97359300       5.01140752      -2.59254131       0.26296149
Si       0.06983000       0.14925000       7.74742000       4.12649000       2.60901100      -8.87608100       4.14207495       2.64169736      -8.72517763
Si       1.93337000       2.41223000       3.74634000      10.14534600       2.98113100     -12.18526000      10.13541934       2.92035344     -11.95160989
Si       0.75978000       6.02813000       1.69309000      -4.13401100      -0.74920300       1.02787300      -4.00239938      -0.92080397       0.82676376
Si       2.22023000       5.10313000       7.16329000      -1.58663400       1.19675500      -1.89967800      -1.58764274       1.11072020      -1.78088946
Si       3.27754000       8.17117000       8.35443000       4.04667900       4.58101600      -2.24829100       4.00196968       4.54959398      -2.05258332
Si       4.48145000       2.18337000       8.34202000      -5.72220500      -5.96162700      -4.99603400      -5.84986800      -5.40736592      -5.01032452
Si       6.36439000       4.54151000       2.12641000       2.28764700      -2.33178900       1.39384200       2.07495067      -2.09535487       1.42618667
Si       4.52267000       6.51460000       3.75633000       0.42177200       5.22743800       1.25328700       0.22306818       5.34049085       1.25489822
Si       7.68278000       0.22257000       3.11016000      -0.17295300       4.89916800      -3.86478000      -0.06890499       4.70235041      -4.02060904
Si       7.35363000       3.38410000       6.13231000       4.40786200       1.27045000       2.62604800       4.20553421       1.42840049       2.82315127
54
Lattice="8.579999685 0.0 0.0 0.0 8.579999685 0.0 0.0 0.0 8.5799996" Properties=species:S:1:pos:R:3:REF_forces:R:3:MACE_forces:R:3 config_type=Fe34B10Si10 REF_energy=-354.71875992 MACE_energy=-353.80255905569555 pbc="T T T"
Fe       0.43313000       1.19321000       2.96848000       1.47291300       2.99028000       0.61180900       1.39613200       2.61732151       0.40284226
Fe       0.91365000       1.12516000       8.09995000       2.76260400      -2.00335600       1.20968300       2.40002638      -1.56709916       1.24016221
Fe       1.17142000       2.67870000       5.23446000      -1.90323000       6.04651700       0.58026800      -2.35310113       6.61325565       0.17476875
Fe       0.60772000       3.85484000       0.87278000       2.66909500       4.89444800       4.53699300       2.36671238       4.90475888       4.19325532
Fe       1.41565000       3.44858000       3.01161000      -0.29549500       2.03729500      -0.74017400       0.03479512       2.16254899      -0.95215540
Fe       0.04226000       2.91249000       8.09734000      -3.39897200      -2.84207300      -2.69442200      -2.85554955      -2.84076643      -2.64732155
Fe       1.33282000       7.09057000       5.22634000      -0.45239700      -1.35392500       0.92503500      -0.34736395      -1.18256031       0.75177051
Fe       2.06045000       7.92051000       0.98063000      -3.11321000      -0.30108300      -2.49280600      -3.55141349      -0.40938068      -2.53389276
Fe       2.03627000       8.24295000       3.50701000      -1.42216600       4.38122900       0.88517600      -1.86042467       4.22199139       0.82422711
Fe       0.01253000       8.02686000       7.00667000       2.58679700       0.98610200     -11.80201700       2.38853246       0.70775640     -11.99160131
Fe       3.00353000       0.57289000       6.13981000      -1.03922300       0.18357300       0.93137300      -0.73422193       0.17704185       0.91034652
Fe       3.69949000       2.65196000       7.51811000       2.76433000      -4.34399200      -3.80269000       2.13439230      -3.96249116      -3.63023560
Fe       2.94478000       6.44154000       3.03987000       7.21319500      -3.66655800      -1.17614100       7.16193171      -3.46303090      -0.97798497
Fe       2.94309000       5.75189000       6.64956000      -6.24071800      -0.74678300       3.86021800      -6.01468307      -0.72159771       4.48791733
Fe       3.71160000       8.39321000       1.86324000       2.24845700      -0.43546600       0.28887200       2.74681844      -0.16369259       1.01176997
Fe       4.07810000       8.43915000       4.32840000       2.88035800       1.28304800      -0.49181300       2.92282883       1.10714572      -0.72636956
Fe       5.57499000       0.73262000       6.31633000      -3.12774100      -1.68249800      -0.98058200      -2.92776971      -1.96926973      -1.39224417
Fe       4.70712000       1.94493000       1.65492000      -2.04675700       4.97917500      -3.67899600      -1.54208117       4.62209349      -3.62920968
Fe       4.73401000       4.18392000       1.24748000       0.71501700       1.80608500      -0.06999200       0.63197630       1.76102151      -0.07901569
Fe       4.56687000       4.22266000       4.39618000       0.73801700       3.32591500      -2.10569900       0.22628831       3.54412705      -2.09883439
Fe       4.51224000       4.61167000       7.05684000       2.53211900      -0.41024200       0.53825400       2.71382317      -0.61085790       0.37305762
Fe       6.32808000       6.81945000       4.24288000      -3.20445400      -0.33519400      -1.28892300      -2.27409820      -0.30571888      -1.04245461
Fe       6.22240000       7.17309000       0.16230000      -3.30904600      -2.75215800       1.90373500      -3.39056212      -2.92488105       2.04165608
Fe       4.54224000       7.44382000       7.03838000       0.17895600      -5.02037800      -8.74618400       0.21759873      -5.44487375      -8.48110176
Fe       4.73272000       8.55832000       8.35561000      -0.10588400       8.96287400       6.54083400      -0.36855526       8.90386047       6.01297425
Fe       7.67285000       2.82429000       2.17742000      -2.12886900      -0.76272600      -2.06587500      -2.04791531      -0.68308051      -1.66546859
Fe       6.74071000       1.77406000       4.33655000       0.47479500       0.50025500      -0.42349800       0.35208500       0.57385812      -0.72142968
Fe       7.16362000       1.61896000       6.68131000       5.11373900       1.83737400       0.70818800       4.74659611       1.64907019       0.84327847
Fe       6.73653000       4.13840000       7.84564000       0.19062300       0.32905600       3.59274800       0.23940146       0.72550968       3.64048706
Fe       6.61248000       5.35948000       2.44590000       0.96755600      -0.77403900      -0.47053600       0.65298687      -0.48667104      -0.01707297
Fe       8.39074000       4.95678000       4.82580000       0.50677700       3.21370700       1.22596300       0.59542265       2.63135189       0.97802444
Fe       6.62275000       6.29700000       6.29237000       0.91106900      -0.58785400       1.74696000       0.55301781      -0.45452241       1.46249932
Fe       8.00875000       8.14674000       2.12563000      -1.25903800      -1.94608200      -3.37077000      -1.22790275      -1.38875897      -3.68710870
Fe       7.96861000       8.10559000       4.08816000       1.24434400       0.03207600       4.40361200       0.46771701      -0.06573372       4.82605768
B        3.14587000       1.61638000       2.59818000      -3.96044800      -1.57388800      -2.24367700      -4.13521304      -1.19866509      -1.98873068
B        4.07212000       1.93087000       3.78701000       0.55534200       0.12762300      -3.25123200       0.91426060      -0.18073123      -3.28130763
B        2.24412000       1.90783000       4.05913000      -1.80380000      -9.70850100      -5.48536600      -2.07301647      -9.84995107      -5.26396194
B        2.90130000       3.06657000       4.45062000       2.48509300       7.60479000      -1.50334300       3.34321556       6.44509266      -1.25271401
B        2.82587000       3.80138000       5.80651000       0.21675600       2.27927400       3.92227300       0.41648073       2.62662355       3.42855475
B        2.60929000       5.04297000       1.66311000       0.12617300      -0.77075900      -0.46531300       0.02102047      -0.77096758      -0.41201039
B        2.47198000       4.95014000       4.32601000      -0.76752800      -1.31946700       0.35153300      -0.82794687      -1.22989412       0.31339418
B        2.73354000       7.81887000       7.66829000      -1.47869400      -0.15377200       0.00458000      -1.42087985      -0.07213511      -0.08535920
B        5.68071000       2.28134000       7.79544000      -0.95924500       0.41857400       1.11780500      -0.82661760       0.28311398       1.09105987
B        7.77536000       3.70665000       3.76574000      -0.44877700      -1.48394500      -0.38974400      -0.39687358      -1.54024331      -0.41545215
Si       0.79518000       0.92195000       5.77957000      -1.66645900      -4.94136200      -1.10925300      -1.51222618      -4.62790446      -1.03105192
Si       0.88055000       4.20706000       6.73551000       1.15626000       3.58432200      -0.32349000       1.13640954       3.33308900       0.12521708
Si       1.15025000       6.44729000       2.43826000      -7.77651300      -1.83655100      -1.54918700      -7.70738366      -1.99759168      -1.51984591
Si       2.82820000       3.29548000       0.50208000      -4.05499500       1.58525200       5.32597100      -3.91659391       1.35733655       5.20699127
Si       4.14031000       6.38272000       0.30005000      -2.16949800      -2.44928300       2.57761000      -2.28853747      -2.61683732       2.35561157
Si       3.68345000       6.43010000       5.01209000       3.98893100       0.98565200      -2.13453700       3.75792031       1.12536080      -2.18171066
Si       5.73751000       0.59059000       2.53265000       5.08228400      -4.90021500       2.23852200       5.15811874      -4.54300589       2.67920581
Si       4.51163000       2.47994000       5.36819000       2.60737700      -2.86786400       7.12589500       2.67079933      -2.43554864       6.78955538
Si       6.43436000       3.75222000       5.86206000       1.38008400       0.66155200      -3.64612400       1.21601683       0.55605693      -3.51003941
Si       8.06432000       7.52318000       8.55473000       2.36409700      -3.06603600      11.34847700       3.01760579      -2.94092383      11.05100049
18
Lattice="6.5 0.0 0.0 0.0 6.5 0.0 0.0 0.0 6.5" Properties=species:S:1:pos:R:3:REF_forces:R:3:MACE_forces:R:3 config_type=Fe12B3Si3 REF_energy=-113.87843945 MACE_energy=-118.65240252711973 pbc="T T T"
Fe       5.40234000       5.43492000       1.53729000      -1.39532100       2.04028400       0.71142300      -1.79417905       2.04669265       0.81802628
Fe       2.09750000       2.10361000       0.54730000       2.35673700      -0.33103000       1.27254800       2.41061238      -0.95613634       1.96297951
Fe       2.84360000       1.73250000       3.81271000       2.28004000      -1.18251600      -0.27344700       2.15769517      -1.25773661      -0.16625181
Fe       0.77541000       4.93717000       1.04317000       1.56096300      -3.83372900       1.76362000       1.63030576      -3.56477788       1.33391358
Fe       0.07665000       3.70431000       3.74351000      -0.75952900      -0.39175400      -2.23189700      -1.25750031      -0.47843507      -2.21937585
Fe       4.77171000       3.58949000       4.78220000      -1.99219600      -4.62409700       0.48420500      -1.37900964      -3.96633917       0.48863656
Fe       4.12430000       1.49867000       1.46476000       0.29771700      -2.38794700       0.28396300       0.17764724      -2.97696262       0.46782199
Fe       0.95387000       5.17746000       5.28728000      -0.57085000      -0.50160400      -1.80733600      -0.49746003      -0.31087398      -1.14342128
Fe       1.93602000       3.09888000       2.36598000      -0.08855100       0.43128300      -0.27209000       0.00351422       1.09276977      -1.03277850
Fe       5.69037000       1.28357000       4.20026000      -0.40866000      -0.49067900       0.18976600      -0.64894717      -0.56366332       0.18613019
Fe       1.94321000       2.86141000       5.39871000      -0.55906500       0.73218900      -1.80086600      -0.68664670       1.16020357      -1.69924356
Fe       4.33122000       5.38124000       5.25469000      -0.73272900       4.56545400       1.52017900      -0.53189788       3.97341206       1.33931044
B        0.37598000       1.64060000       1.21420000      -3.21263000       2.85095800       0.76078000      -2.79150294       2.43648366      -0.03024661
B        1.88110000       4.04794000       3.96741000       2.48956600       2.45119300      -0.32261600       2.20394910       2.54917004      -0.14768799
B        3.63878000       0.94242000       5.41981000      -0.01444500       0.67937600       0.95779200       0.44040062       0.42282318       0.90174432
Si       1.19380000       0.26963000       0.19686000       0.54051800       0.24528300      -1.93219100       0.66154327       0.32846430      -1.76604250
Si       4.57825000       3.47658000       1.16117000       0.15934200       1.26766700      -0.81102600      -0.14253999       1.53370127      -0.84587977
Si       1.09558000       0.76720000       2.75124000       0.04909300      -1.52033200       1.50719200       0.04401595      -1.46879551       1.55236499
54
Lattice="8.579999685 0.0 0.0 0.0 8.579999685 0.0 0.0 0.0 8.5799996" Properties=species:S:1:pos:R:3:REF_forces:R:3:MACE_forces:R:3 config_type=Fe34B10Si10 REF_energy=-356.0869274 MACE_energy=-355.53682056872003 pbc="T T T"
Fe       0.92877000       1.08311000       2.12831000      -0.53214900      -1.15432400       0.53007800      -0.78718814      -0.87904455       0.73833279
Fe       1.12794000       0.45096000       7.37327000      -2.86345100       2.18226700       1.45805300      -2.43863425       1.97123678       1.25005648
Fe       0.91289000       3.61082000       1.96264000      -1.66570100       0.50807500      -4.76654600      -1.92909730       0.47634933      -4.57449316
Fe       0.97242000       3.25012000       3.83975000      -0.85629000      -1.23507100      -0.91491200      -0.65405549      -1.37964730       0.05550424
Fe       1.43574000       3.84332000       5.84621000      -1.94378300      -0.72872400       4.94145300      -1.86953662      -0.63320512       4.37855338
Fe       0.45897000       5.99881000       1.32384000       1.86679900       1.45939200      -0.33976700       2.10915969       1.48342483       0.03713785
Fe       0.05714000       6.25044000       6.01250000       0.66851500      -0.88142700       1.67028200       0.52465425      -1.08172995       1.33175809
Fe       1.87526000       7.05991000       7.27744000      -5.90957000       6.81146600       5.95768600      -5.40447549       7.09416145       5.88678380
Fe       4.21220000       0.80536000       3.81626000       0.44958900      -1.97725700       0.54591300       0.52362107      -1.73057201       0.38267905
Fe       2.64196000       0.75311000       5.88605000       0.80305000      -0.92688600      -1.50973400       0.40706667      -0.74000056      -1.56263972
Fe       2.51735000       4.27963000       7.86001000      -0.17185400       2.88247300       0.00075600      -0.27300532       2.42927929      -0.29515107
Fe       2.46175000       4.76211000       4.38544000       2.27245000       6.36429500      -0.60000700       2.15022762       5.86448412      -0.77582350
Fe       3.99132000       4.46692000       6.09268000      -0.21521200      -1.96607600      -0.25853400      -0.64896338      -2.12135612      -0.45257554
Fe       4.03283000       6.20484000       2.50717000       0.32509400      -1.83048700       1.07686200       0.43043248      -1.72782087       0.95041715
Fe       2.62183000       8.12097000       1.25125000      -5.45108600      -1.04608100      -0.88869000      -5.32411455      -1.26252460      -0.47339821
Fe       2.34208000       7.49949000       3.33705000      -1.45221900       0.10179900       1.96325000      -1.36317389       0.21695271       2.00715313
Fe       4.67554000       0.98699000       8.35162000       1.97529500       0.95938300       0.07305200       1.91773023       1.20282392       0.30197837
Fe       4.68615000       2.28426000       1.60336000       6.03713100       4.39249100       1.56082500       6.76871758       4.46345706       1.05443238
Fe       4.95897000       4.28949000       0.91503000       1.24258400       3.77490300      -1.07876200       1.12511567       3.88127598      -1.44499311
Fe       5.62605000       3.84953000       3.25301000      -4.56775200       3.43217100       2.09526400      -4.67305680       3.25487450       1.77003540
Fe       5.63153000       5.70233000       4.67966000       0.04558900       0.36352900      -0.74034800      -0.04239699       0.26058711      -0.73158884
Fe       5.00954000       6.14620000       6.89198000       4.51113600      -2.60361300       1.43664400       3.83200464      -2.22162137       1.26850535
Fe       5.34723000       7.32984000       0.56425000       3.41130600      -7.55812200      -7.44238600       3.35125082      -6.90379198      -7.26201811
Fe       4.57141000       8.20633000       1.67615000      -2.51651100       6.57056000       9.11650700      -2.40389906       5.31921942       9.30333147
Fe       5.67084000       7.83697000       6.02451000      -0.02983000       3.57151200       0.33120700      -0.06712048       3.65366227       0.07648589
Fe       7.65837000       1.05332000       0.64336000       1.95813700       2.93603900      -3.62028800       1.64410712       2.56775481      -3.64177988
Fe       7.23579000       1.49494000       3.62009000       0.88838800      -1.50203300       3.00240400       0.76492586      -1.33187877       3.14165349
Fe       6.96409000       1.59543000       6.70415000       0.40175100      -2.57633900      -0.54943900       0.44078506      -2.53085538      -0.39746651
Fe       6.97946000       3.05325000       2.27831000       3.01329100      -2.85779700      -7.80747400       2.55481220      -3.44818124      -6.84489048
Fe       7.05854000       3.62734000       7.13255000       0.94483300       2.42104600       2.56329500       0.98015646       2.53580092       2.14994265
Fe       7.47490000       4.49325000       0.92243000      -3.13561000       0.06366500       0.11142200      -2.94360833       0.57425832      -0.47133531
Fe       7.76499000       5.40883000       4.05655000       3.42051700      -2.49950500       1.10150300       3.65833224      -2.49306816       0.99936676
Fe       6.91686000       6.16423000       2.38917000      -4.34160700       0.52717700      -3.24358900      -4.58075424       0.25003951      -2.89760746
Fe       7.31773000       7.39473000       4.73130000      -1.41907300       3.06948200       1.38572900      -1.40295284       2.78028701       1.73845769
B        1.63947000       5.44017000       2.85377000      -1.37965300       1.67099600      -0.34434500      -1.65035650       1.75996909      -0.60750482
B        3.47444000       1.29905000       1.69513000      -6.04542900      -7.46227000      -1.52467000      -6.11703935      -7.62398959      -1.53051602
B        2.31673000       1.42955000       3.77944000      -1.85652800      -2.14982900       3.21956500      -1.78437583      -1.96860629       3.60440735
B        3.17088000       0.01260000       8.16689000      -2.14308300      -0.12737100      -3.63430700      -1.72671512       0.02462016      -3.90058349
B        2.48887000       2.23189000       2.44876000      -1.30373000       3.96631200      -0.94871100      -0.83796496       4.00986887      -0.79944340
B        3.55016000       3.21990000       0.17024000       2.13469500      -3.52588700       0.23974700       1.88940619      -3.25013559       0.86113374
B        3.12966000       3.07291000       4.24572000      -6.99085300       0.34377600      -0.16579100      -7.15992795      -0.01873239      -0.12202489
B        2.38358000       5.95301000       6.34325000       2.25901800      -8.76611800      -6.31465800       2.20580151      -8.90521398      -6.57892978
B        4.46260000       2.62992000       4.23823000       7.08507900      -1.75449200       0.40993300       6.96293366      -1.68078530       0.22531831
B        7.51183000       3.59374000       3.85724000       1.49621300      -1.20378300       3.39561400       1.64116623      -0.94930408       3.43871402
Si       0.50050000       1.66927000       5.10425000      -1.02554400      -2.67263500       2.61432900      -0.78732674      -2.61907411       2.37173544
Si       0.41923000       4.50138000       8.15701000       0.82744200      -0.47721100      -2.57541600       1.01963784      -0.18625760      -2.84087623
Si       2.90131000       4.25049000       1.93860000       2.71957100       0.04497600      -0.88170100       2.72429963       0.15219495      -1.06277274
Si       3.74353000       6.85388000       5.19884000      -1.20766000       1.80214700      -2.20114300      -1.09434989       1.94986638      -2.24907219
Si       3.54209000       6.47938000       8.21357000      -0.45014500      -1.75854100       4.24377300      -0.44509946      -1.87499392       4.53379139
Si       4.55252000       1.74669000       6.40118000       0.28733400       0.20348600      -1.69136000       0.00980091      -0.10010772      -1.43092662
Si       5.87020000       3.30923000       5.41310000       1.93974000       0.55942400      -1.14043100       1.96229869       0.91334519      -0.87351363
Si       6.68392000       0.09389000       2.07850000      -2.78148600      -1.30329400       2.70552900      -2.60775270      -0.65475422       2.72565299
Si       7.30980000       7.36953000       0.08595000       4.18267400      -0.22507900      -1.67891000       4.10593856      -0.67571447      -2.02601491
Si       8.41387000       7.50606000       2.97540000       5.08859000       1.78741200      -0.88875800       5.31255879       1.90317325      -0.73537901
54
Lattice="8.579999685 0.0 0.0 0.0 8.579999685 0.0 0.0 0.0 8.5799996" Properties=species:S:1:pos:R:3:REF_forces:R:3:MACE_forces:R:3 config_type=Fe34B10Si10 REF_energy=-359.84864784 MACE_energy=-359.60435126349415 pbc="T T T"
Fe       0.39531000       2.37288000       0.87042000       3.27925500       2.43832800      -1.60261100       3.06647243       2.61897238      -2.01088870
Fe       0.75383000       1.65209000       3.11094000       1.30783500      -0.34615400      -0.09267000       0.71164866      -0.45076919       0.37589197
Fe       1.33201000       3.79282000       7.26231000      -2.40668100      -1.18131200       0.32245500      -2.26159719      -0.98182013       0.06359051
Fe       0.64436000       4.41396000       2.97573000       2.42004200      -2.26182600       0.38963900       2.13652954      -1.86574249       0.34397443
Fe       0.14751000       6.42079000       3.51005000      -3.07002100       1.32407200      -2.30638400      -2.62715829       1.01219395      -2.26162869