54
Lattice="8.579999685 0.0 0.0 0.0 8.579999685 0.0 0.0 0.0 8.5799996" Properties=species:S:1:pos:R:3:REF_forces:R:3:MACE_forces:R:3 config_type=Fe34B10Si10 REF_energy=-352.89092233 MACE_energy=-353.32281010404915 pbc="T T T"
Fe       1.46495000       0.71583000       1.12880000       3.73230100      -3.41607500      -3.76209700       3.68878145      -3.50846329      -3.54591509
Fe       0.56244000       2.07917000       1.96452000      -3.31290700       4.06628900       2.54508600      -3.22558785       3.96472398       2.34283524
Fe       0.86636000       2.12990000       5.00906000     -10.85567700      -2.87102900      12.20968700     -10.94038246      -2.95665431      12.21786206
Fe       0.24697000       2.61233000       7.83061000      -0.37811800      -2.03816900      -0.08744800      -0.42011314      -1.90380510       0.08358990
Fe       0.35437000       4.66395000       8.16447000      -1.30300600       1.62250000       0.84662400      -1.32869446       1.61152682       0.77408258
Fe       0.83543000       8.00840000       3.01492000       5.54921000      -2.55787300       0.52513800       5.70646135      -2.53168950       0.38783862
Fe       2.03952000       7.84431000       6.63062000      -4.28706100       1.82495200      -1.68802900      -4.07369230       1.96546020      -1.63791023
Fe       3.34318000       0.11090000       2.96052000      -0.46571400      -0.35056300       0.37864800      -0.51956511      -0.22171563       0.47495079
Fe       3.26317000       2.11539000       1.48699000      -3.47884800      -0.03222100       0.61542300      -3.41954364      -0.30514495       0.16494470
Fe       4.14313000       2.75755000       3.31065000      -0.71378000      -2.73118300       1.93004800      -0.61669304      -2.40967020       1.86054743
Fe       2.55051000       2.67374000       7.19710000      -2.55215900      -0.93589000       1.77261600      -2.30200418      -1.14266661       1.71878134
Fe       3.61327000       2.86500000       5.46497000       1.55763200       0.20514300      -0.56676300       1.46692368       0.27718806      -0.28325861
Fe       2.62400000       4.72550000       1.39174000      -1.08585200      -1.19598700       0.59645400      -1.35149360      -1.00807761       0.69697544
Fe       2.20317000       5.21693000       3.87451000      -3.92870900      -4.38103900      -4.92199500      -3.85725279      -4.38867243      -4.97327298
Fe       3.93082000       4.37819000       8.08226000       1.07616800       0.44807800      -0.99700400       1.02929723       0.30294040      -0.92152957
Fe       2.44961000       7.01753000       1.08943000       0.32119000      -1.55635000       3.27006500       0.44286409      -1.63282379       3.26218179
Fe       3.02500000       6.15780000       5.08193000      -1.08486800       1.64126100       3.95415400      -0.63833356       1.63943952       4.04151673
Fe       5.77712000       0.44616000       0.16142000      -2.43333700       0.07175000       4.13474700      -2.47451914       0.40917654       4.22144919
Fe       5.66964000       0.14892000       2.95259000      -3.67617900       1.90971100       0.12919700      -3.65193843       1.65354832       0.31926907
Fe       5.39484000       2.66317000       1.55162000       4.08183700      -3.39937100       3.88213200       4.03105069      -3.64678819       4.03497022
Fe       5.91309000       3.40423000       8.31953000       8.90196200       5.48305700      -2.72562400       8.72153345       5.46151609      -2.71698669
Fe       4.96126000       4.63305000       3.41410000      -3.60269200      -2.00302700       2.25051900      -3.72829058      -2.22138733       2.38018334
Fe       5.11347000       6.81217000       1.78872000      -0.87770500       0.06714300      -1.61156800      -0.70356037       0.07218074      -1.57112111
Fe       5.00950000       6.45991000       8.24507000      -2.30619500      -0.19808200      -1.52355700      -2.28215560       0.01519939      -1.66851549
Fe       4.64263000       7.71190000       5.75084000       2.50156800       4.23919200      -1.55456800       2.61134312       4.26588456      -1.58970313
Fe       7.32285000       0.33022000       5.03535000      -0.99210900      -0.59745100       4.73628300      -1.02552714      -0.38351604       4.81085822
Fe       6.75330000       1.32958000       7.05071000       0.53851300       2.01290400       0.36400700       0.56304403       1.82582813       0.28434998
Fe       6.82686000       2.53028000       3.66692000      -0.08907100      -0.12987400      -0.26318300      -0.06280674      -0.21270684      -0.24855985
Fe       6.83617000       5.56618000       0.59386000       1.74434500       1.47371700      -3.32847200       1.81035800       1.62886537      -3.40859293
Fe       8.27091000       4.29855000       2.87718000       3.23308900       0.33980500       1.37352500       3.20886912       0.22693970       1.32858038
Fe       6.58774000       4.90718000       4.97515000      -1.87594500       0.58060600      -0.05143700      -2.12992444       0.61296792      -0.28806716
Fe       6.86773000       6.79187000       3.27473000       1.52763600      -2.76254700       0.67579100       1.39813992      -2.41470493       0.39850580
Fe       8.09083000       8.29691000       0.84396000      -4.18921500      -1.95965200       9.56442300      -4.20161232      -2.33311384       9.67616536
Fe       6.62133000       7.67903000       7.47205000      -3.65417600       1.51975600      -3.32990400      -3.88814796       1.22710313      -3.51942113
B        3.45077000       6.81738000       6.75435000       2.04131500      -2.79808300       3.80923700       1.90781616      -2.70034439       3.93824918
B        4.67436000       1.10514000       4.73414000       0.75036200       0.95391600      -0.52852700       0.82548426       0.87301606      -0.46605770
B        6.18153000       2.20088000       5.47737000      -4.49435700      -3.20609500      -2.27763700      -4.71167429      -3.15115934      -2.47251742
B        5.08133000       4.10197000       6.35983000       0.35152900       0.25548900      -0.65354500       0.58017432       0.33592417      -0.63885510
B        4.48663000       4.29393000       1.40792000      -0.27448100       1.04603100       0.21283300      -0.26710227       1.21738822       0.15697650
B        4.96286000       5.88068000       6.14703000       0.60492000      -1.85032800       0.29314600       0.63643892      -1.92376194       0.12403568
B        8.17242000       5.65216000       5.55863000       1.00443800       0.65677900      -0.69824300       1.02683006       0.74169168      -0.33920610
B        7.98743000       6.92663000       6.60530000       5.86774900       2.58695800      -4.05103700       5.84525970       2.50682817      -3.74090491
B        7.10769000       5.72812000       6.91109000      -2.33709700      -3.34606800       1.34633400      -2.33537666      -3.51303908       1.29278644
B        7.81665000       6.81498000       8.33858000       5.04350100      -2.41043400       0.97359300       5.17248873      -2.41163336       0.75776987
Si       0.06983000       0.14925000       7.74742000       4.12649000       2.60901100      -8.87608100       3.95718974       2.64132021      -8.87016181
Si       1.93337000       2.41223000       3.74634000      10.14534600       2.98113100     -12.18526000      10.23307379       3.11174808     -12.01234271
Si       0.75978000       6.02813000       1.69309000      -4.13401100      -0.74920300       1.02787300      -4.12840792      -0.86511152       1.03314742
Si       2.22023000       5.10313000       7.16329000      -1.58663400       1.19675500      -1.89967800      -1.78244207       1.16816392      -1.93408401
Si       3.27754000       8.17117000       8.35443000       4.04667900       4.58101600      -2.24829100       3.90848870       4.54228024      -2.46869544
Si       4.48145000       2.18337000       8.34202000      -5.72220500      -5.96162700      -4.99603400      -5.48828073      -5.82432983      -5.14111901
Si       6.36439000       4.54151000       2.12641000       2.28764700      -2.33178900       1.39384200       2.59856379      -2.24006048       1.26586600
Si       4.52267000       6.51460000       3.75633000       0.42177200       5.22743800       1.25328700       0.14648706       5.38343411       1.40154494
Si       7.68278000       0.22257000       3.11016000      -0.17295300       4.89916800      -3.86478000      -0.30709657       4.77251665      -3.98614294
Si       7.35363000       3.38410000       6.13231000       4.40786200       1.27045000       2.62604800       4.34525804       1.39624015       2.99212689
54
Lattice="8.579999685 0.0 0.0 0.0 8.579999685 0.0 0.0 0.0 8.5799996" Properties=species:S:1:pos:R:3:REF_forces:R:3:MACE_forces:R:3 config_type=Fe34B10Si10 REF_energy=-354.71875992 MACE_energy=-355.3759127811995 pbc="T T T"
Fe       0.43313000       1.19321000       2.96848000       1.47291300       2.99028000       0.61180900       1.61967481       2.98560929       0.31780251
Fe       0.91365000       1.12516000       8.09995000       2.76260400      -2.00335600       1.20968300       2.57531476      -2.15094686       1.11570559
Fe       1.17142000       2.67870000       5.23446000      -1.90323000       6.04651700       0.58026800      -1.68908340       6.29606312       0.61180950
Fe       0.60772000       3.85484000       0.87278000       2.66909500       4.89444800       4.53699300       2.65891224       5.10933656       4.26396411
Fe       1.41565000       3.44858000       3.01161000      -0.29549500       2.03729500      -0.74017400      -0.28164294       1.93604884      -0.67159217
Fe       0.04226000       2.91249000       8.09734000      -3.39897200      -2.84207300      -2.69442200      -3.09781717      -2.75383152      -2.50008297
Fe       1.33282000       7.09057000       5.22634000      -0.45239700      -1.35392500       0.92503500      -0.21563501      -1.49815007       0.81395076
Fe       2.06045000       7.92051000       0.98063000      -3.11321000      -0.30108300      -2.49280600      -3.23824269      -0.53945492      -2.33254735
Fe       2.03627000       8.24295000       3.50701000      -1.42216600       4.38122900       0.88517600      -1.53644732       4.19757532       0.55740942
Fe       0.01253000       8.02686000       7.00667000       2.58679700       0.98610200     -11.80201700       2.51034827       0.82598718     -11.91850567
Fe       3.00353000       0.57289000       6.13981000      -1.03922300       0.18357300       0.93137300      -0.71429356      -0.02228034       1.08453218
Fe       3.69949000       2.65196000       7.51811000       2.76433000      -4.34399200      -3.80269000       2.56895731      -4.14677660      -3.67797672
Fe       2.94478000       6.44154000       3.03987000       7.21319500      -3.66655800      -1.17614100       7.12566147      -3.37883103      -0.92583718
Fe       2.94309000       5.75189000       6.64956000      -6.24071800      -0.74678300       3.86021800      -6.59683380      -0.75835411       3.88473062
Fe       3.71160000       8.39321000       1.86324000       2.24845700      -0.43546600       0.28887200       2.36358667      -0.25483584       0.52971651
Fe       4.07810000       8.43915000       4.32840000       2.88035800       1.28304800      -0.49181300       2.94295728       1.48567578      -0.80558634
Fe       5.57499000       0.73262000       6.31633000      -3.12774100      -1.68249800      -0.98058200      -2.97819747      -1.73251375      -1.03627289
Fe       4.70712000       1.94493000       1.65492000      -2.04675700       4.97917500      -3.67899600      -2.14262691       4.83132986      -3.40230477
Fe       4.73401000       4.18392000       1.24748000       0.71501700       1.80608500      -0.06999200       0.71248829       1.99993958      -0.15108793
Fe       4.56687000       4.22266000       4.39618000       0.73801700       3.32591500      -2.10569900       0.60777384       3.49847670      -2.30850935
Fe       4.51224000       4.61167000       7.05684000       2.53211900      -0.41024200       0.53825400       2.99331355      -0.69352259       0.64742020
Fe       6.32808000       6.81945000       4.24288000      -3.20445400      -0.33519400      -1.28892300      -2.85619666      -0.30234874      -1.08613761
Fe       6.22240000       7.17309000       0.16230000      -3.30904600      -2.75215800       1.90373500      -3.54596974      -2.98122490       1.92971931
Fe       4.54224000       7.44382000       7.03838000       0.17895600      -5.02037800      -8.74618400       0.15568203      -5.32156943      -8.86318094
Fe       4.73272000       8.55832000       8.35561000      -0.10588400       8.96287400       6.54083400      -0.24778500       9.46816672       6.41306539
Fe       7.67285000       2.82429000       2.17742000      -2.12886900      -0.76272600      -2.06587500      -2.11843474      -0.69954335      -1.92014188
Fe       6.74071000       1.77406000       4.33655000       0.47479500       0.50025500      -0.42349800       0.13547070       0.52863682      -0.55911278
Fe       7.16362000       1.61896000       6.68131000       5.11373900       1.83737400       0.70818800       4.95399686       1.65578695       0.64251584
Fe       6.73653000       4.13840000       7.84564000       0.19062300       0.32905600       3.59274800       0.35277602       0.46349440       3.68910132
Fe       6.61248000       5.35948000       2.44590000       0.96755600      -0.77403900      -0.47053600       0.91000894      -0.76484778      -0.38671171
Fe       8.39074000       4.95678000       4.82580000       0.50677700       3.21370700       1.22596300       0.55007428       3.13948181       1.08451012
Fe       6.62275000       6.29700000       6.29237000       0.91106900      -0.58785400       1.74696000       0.85234285      -0.46519365       1.52486412
Fe       8.00875000       8.14674000       2.12563000      -1.25903800      -1.94608200      -3.37077000      -0.86848322      -1.96522297      -3.54004320
Fe       7.96861000       8.10559000       4.08816000       1.24434400       0.03207600       4.40361200       0.68133789      -0.04251491       4.63749414
B        3.14587000       1.61638000       2.59818000      -3.96044800      -1.57388800      -2.24367700      -4.10217640      -1.55113046      -2.21236540
B        4.07212000       1.93087000       3.78701000       0.55534200       0.12762300      -3.25123200       0.40066717      -0.03893950      -3.37845955
B        2.24412000       1.90783000       4.05913000      -1.80380000      -9.70850100      -5.48536600      -1.84078241      -9.88765200      -5.58490764
B        2.90130000       3.06657000       4.45062000       2.48509300       7.60479000      -1.50334300       2.78254805       7.08376971      -1.36700800
B        2.82587000       3.80138000       5.80651000       0.21675600       2.27927400       3.92227300       0.27224971       2.13732300       3.96395336
B        2.60929000       5.04297000       1.66311000       0.12617300      -0.77075900      -0.46531300      -0.03697052      -0.94657536      -0.47077796
B        2.47198000       4.95014000       4.32601000      -0.76752800      -1.31946700       0.35153300      -0.91608497      -1.12914787       0.34003603
B        2.73354000       7.81887000       7.66829000      -1.47869400      -0.15377200       0.00458000      -1.41790344      -0.13088672       0.10048168
B        5.68071000       2.28134000       7.79544000      -0.95924500       0.41857400       1.11780500      -1.05268186       0.37127763       1.11638227
B        7.77536000       3.70665000       3.76574000      -0.44877700      -1.48394500      -0.38974400      -0.49308142      -1.38075061      -0.18672616
Si       0.79518000       0.92195000       5.77957000      -1.66645900      -4.94136200      -1.10925300      -1.65130282      -5.08593183      -0.91944434
Si       0.88055000       4.20706000       6.73551000       1.15626000       3.58432200      -0.32349000       1.13795078       3.70252940      -0.28777899
Si       1.15025000       6.44729000       2.43826000      -7.77651300      -1.83655100      -1.54918700      -7.83719407      -1.65873979      -1.75314798
Si       2.82820000       3.29548000       0.50208000      -4.05499500       1.58525200       5.32597100      -4.13598532       1.39225500       5.16607291
Si       4.14031000       6.38272000       0.30005000      -2.16949800      -2.44928300       2.57761000      -2.30847216      -2.37600661       2.44442928
Si       3.68345000       6.43010000       5.01209000       3.98893100       0.98565200      -2.13453700       3.92185399       1.20087254      -2.03687007
Si       5.73751000       0.59059000       2.53265000       5.08228400      -4.90021500       2.23852200       5.20018288      -5.00160137       2.53636435
Si       4.51163000       2.47994000       5.36819000       2.60737700      -2.86786400       7.12589500       2.72597486      -2.59443914       7.30041260
Si       6.43436000       3.75222000       5.86206000       1.38008400       0.66155200      -3.64612400       1.49888465       0.68366722      -3.78590028
Si       8.06432000       7.52318000       8.55473000       2.36409700      -3.06603600      11.34847700       2.70933487      -2.73953878      11.35257372
18
Lattice="6.5 0.0 0.0 0.0 6.5 0.0 0.0 0.0 6.5" Properties=species:S:1:pos:R:3:REF_forces:R:3:MACE_forces:R:3 config_type=Fe12B3Si3 REF_energy=-113.87843945 MACE_energy=-112.45960655884844 pbc="T T T"
Fe       5.40234000       5.43492000       1.53729000      -1.39532100       2.04028400       0.71142300      -1.16311200       2.05532713       0.78723967
Fe       2.09750000       2.10361000       0.54730000       2.35673700      -0.33103000       1.27254800       2.72421002      -0.25825697       1.36889724
Fe       2.84360000       1.73250000       3.81271000       2.28004000      -1.18251600      -0.27344700       2.25888532      -1.07814046      -0.32542492
Fe       0.77541000       4.93717000       1.04317000       1.56096300      -3.83372900       1.76362000       1.54842989      -3.66412026       1.57701683
Fe       0.07665000       3.70431000       3.74351000      -0.75952900      -0.39175400      -2.23189700      -0.85980401      -0.46924418      -2.35881653
Fe       4.77171000       3.58949000       4.78220000      -1.99219600      -4.62409700       0.48420500      -1.81033454      -4.54424113       0.44689436
Fe       4.12430000       1.49867000       1.46476000       0.29771700      -2.38794700       0.28396300       0.35637042      -2.68724936       0.15239295
Fe       0.95387000       5.17746000       5.28728000      -0.57085000      -0.50160400      -1.80733600      -0.82513898      -0.68662871      -1.38444724
Fe       1.93602000       3.09888000       2.36598000      -0.08855100       0.43128300      -0.27209000      -0.23530808       0.58225660      -0.36762605
Fe       5.69037000       1.28357000       4.20026000      -0.40866000      -0.49067900       0.18976600      -0.68651722      -0.36757623       0.24414005
Fe       1.94321000       2.86141000       5.39871000      -0.55906500       0.73218900      -1.80086600      -0.69241676       1.14465283      -2.20578262
Fe       4.33122000       5.38124000       5.25469000      -0.73272900       4.56545400       1.52017900      -0.62642191       4.49165312       1.59979210
B        0.37598000       1.64060000       1.21420000      -3.21263000       2.85095800       0.76078000      -3.20154794       2.75362178       1.03154898
B        1.88110000       4.04794000       3.96741000       2.48956600       2.45119300      -0.32261600       2.51498101       2.24223501      -0.27514407
B        3.63878000       0.94242000       5.41981000      -0.01444500       0.67937600       0.95779200       0.02680834       0.77666001       1.08529813
Si       1.19380000       0.26963000       0.19686000       0.54051800       0.24528300      -1.93219100       0.59943109      -0.00532709      -1.88753904
Si       4.57825000       3.47658000       1.16117000       0.15934200       1.26766700      -0.81102600       0.20066713       1.34911003      -0.75888006
Si       1.09558000       0.76720000       2.75124000       0.04909300      -1.52033200       1.50719200      -0.12918177      -1.63473214       1.27044022
54
Lattice="8.579999685 0.0 0.0 0.0 8.579999685 0.0 0.0 0.0 8.5799996" Properties=species:S:1:pos:R:3:REF_forces:R:3:MACE_forces:R:3 config_type=Fe34B10Si10 REF_energy=-356.0869274 MACE_energy=-357.11210819496955 pbc="T T T"
Fe       0.92877000       1.08311000       2.12831000      -0.53214900      -1.15432400       0.53007800      -0.61839330      -1.16429604       0.46463899
Fe       1.12794000       0.45096000       7.37327000      -2.86345100       2.18226700       1.45805300      -2.73425093       2.07702176       1.41173457
Fe       0.91289000       3.61082000       1.96264000      -1.66570100       0.50807500      -4.76654600      -1.57730229       0.10598047      -4.47029856
Fe       0.97242000       3.25012000       3.83975000      -0.85629000      -1.23507100      -0.91491200      -1.10001410      -1.05131796      -0.63967692
Fe       1.43574000       3.84332000       5.84621000      -1.94378300      -0.72872400       4.94145300      -2.06125669      -0.53700827       4.72767127
Fe       0.45897000       5.99881000       1.32384000       1.86679900       1.45939200      -0.33976700       1.67194360       1.46371969      -0.16636363
Fe       0.05714000       6.25044000       6.01250000       0.66851500      -0.88142700       1.67028200       0.62194685      -0.75001218       1.72811807
Fe       1.87526000       7.05991000       7.27744000      -5.90957000       6.81146600       5.95768600      -5.62764247       6.97197236       5.78602565
Fe       4.21220000       0.80536000       3.81626000       0.44958900      -1.97725700       0.54591300       0.53475392      -1.80300258       0.46313459
Fe       2.64196000       0.75311000       5.88605000       0.80305000      -0.92688600      -1.50973400       0.49847936      -1.08993794      -1.51194984
Fe       2.51735000       4.27963000       7.86001000      -0.17185400       2.88247300       0.00075600      -0.18363386       3.06031091       0.06954233
Fe       2.46175000       4.76211000       4.38544000       2.27245000       6.36429500      -0.60000700       2.29856840       6.36834489      -0.48055463
Fe       3.99132000       4.46692000       6.09268000      -0.21521200      -1.96607600      -0.25853400      -0.33205268      -2.19817534      -0.14689990
Fe       4.03283000       6.20484000       2.50717000       0.32509400      -1.83048700       1.07686200       0.35890709      -1.77498814       1.10546696
Fe       2.62183000       8.12097000       1.25125000      -5.45108600      -1.04608100      -0.88869000      -5.59535363      -1.09358147      -0.67206284
Fe       2.34208000       7.49949000       3.33705000      -1.45221900       0.10179900       1.96325000      -1.30073103       0.10647086       1.58580902
Fe       4.67554000       0.98699000       8.35162000       1.97529500       0.95938300       0.07305200       1.71510787       0.86543140       0.33015329
Fe       4.68615000       2.28426000       1.60336000       6.03713100       4.39249100       1.56082500       6.16813834       4.36514827       1.11967769
Fe       4.95897000       4.28949000       0.91503000       1.24258400       3.77490300      -1.07876200       0.79957568       3.55489990      -1.17182280
Fe       5.62605000       3.84953000       3.25301000      -4.56775200       3.43217100       2.09526400      -4.71907626       3.43352669       1.94232770
Fe       5.63153000       5.70233000       4.67966000       0.04558900       0.36352900      -0.74034800       0.11076327      -0.04751639      -0.58411532
Fe       5.00954000       6.14620000       6.89198000       4.51113600      -2.60361300       1.43664400       4.56797937      -2.56184771       1.28845918
Fe       5.34723000       7.32984000       0.56425000       3.41130600      -7.55812200      -7.44238600       3.22451948      -7.15525049      -7.12654534
Fe       4.57141000       8.20633000       1.67615000      -2.51651100       6.57056000       9.11650700      -2.31785504       6.18564902       8.83347951
Fe       5.67084000       7.83697000       6.02451000      -0.02983000       3.57151200       0.33120700      -0.04813390       3.67780912       0.46196937
Fe       7.65837000       1.05332000       0.64336000       1.95813700       2.93603900      -3.62028800       1.79042446       2.79909092      -3.41532264
Fe       7.23579000       1.49494000       3.62009000       0.88838800      -1.50203300       3.00240400       1.06890302      -1.49988813       3.00382456
Fe       6.96409000       1.59543000       6.70415000       0.40175100      -2.57633900      -0.54943900       0.43714801      -2.38931642      -0.47017416
Fe       6.97946000       3.05325000       2.27831000       3.01329100      -2.85779700      -7.80747400       2.66075445      -2.88079553      -7.41913115
Fe       7.05854000       3.62734000       7.13255000       0.94483300       2.42104600       2.56329500       0.99475330       2.27577182       2.35017724
Fe       7.47490000       4.49325000       0.92243000      -3.13561000       0.06366500       0.11142200      -2.80447917       0.40950787      -0.13028339
Fe       7.76499000       5.40883000       4.05655000       3.42051700      -2.49950500       1.10150300       3.62865524      -2.67727771       1.13756427
Fe       6.91686000       6.16423000       2.38917000      -4.34160700       0.52717700      -3.24358900      -4.38253327       0.87354383      -3.25930246
Fe       7.31773000       7.39473000       4.73130000      -1.41907300       3.06948200       1.38572900      -1.45829278       2.98101216       1.32441835
B        1.63947000       5.44017000       2.85377000      -1.37965300       1.67099600      -0.34434500      -1.41778184       1.76605446      -0.53476781
B        3.47444000       1.29905000       1.69513000      -6.04542900      -7.46227000      -1.52467000      -6.13122397      -6.99732337      -1.30455027
B        2.31673000       1.42955000       3.77944000      -1.85652800      -2.14982900       3.21956500      -1.84554214      -1.95103731       3.29896015
B        3.17088000       0.01260000       8.16689000      -2.14308300      -0.12737100      -3.63430700      -2.09387140       0.14187069      -3.46876067
B        2.48887000       2.23189000       2.44876000      -1.30373000       3.96631200      -0.94871100      -0.90879836       3.68345807      -1.24690742
B        3.55016000       3.21990000       0.17024000       2.13469500      -3.52588700       0.23974700       2.15065280      -3.59491004       0.38728321
B        3.12966000       3.07291000       4.24572000      -6.99085300       0.34377600      -0.16579100      -6.83036053       0.09628761      -0.16730702
B        2.38358000       5.95301000       6.34325000       2.25901800      -8.76611800      -6.31465800       2.12015937      -9.05502947      -6.42783727
B        4.46260000       2.62992000       4.23823000       7.08507900      -1.75449200       0.40993300       6.95690206      -1.82301819       0.34361565
B        7.51183000       3.59374000       3.85724000       1.49621300      -1.20378300       3.39561400       1.49384825      -1.00575597       3.22331440
Si       0.50050000       1.66927000       5.10425000      -1.02554400      -2.67263500       2.61432900      -0.78549082      -2.98083065       2.55500832
Si       0.41923000       4.50138000       8.15701000       0.82744200      -0.47721100      -2.57541600       1.10062078      -0.44031167      -2.75233637
Si       2.90131000       4.25049000       1.93860000       2.71957100       0.04497600      -0.88170100       2.69372440       0.00117554      -1.02793392
Si       3.74353000       6.85388000       5.19884000      -1.20766000       1.80214700      -2.20114300      -1.07947361       1.94157272      -2.07542676
Si       3.54209000       6.47938000       8.21357000      -0.45014500      -1.75854100       4.24377300      -0.57115811      -2.01670932       4.41889961
Si       4.55252000       1.74669000       6.40118000       0.28733400       0.20348600      -1.69136000       0.28747634       0.22529117      -1.65593989
Si       5.87020000       3.30923000       5.41310000       1.93974000       0.55942400      -1.14043100       1.68312126       0.82791114      -1.24499211
Si       6.68392000       0.09389000       2.07850000      -2.78148600      -1.30329400       2.70552900      -2.55770014      -1.24057759       2.86314599
Si       7.30980000       7.36953000       0.08595000       4.18267400      -0.22507900      -1.67891000       4.41912226      -0.37323062      -1.74565792
Si       8.41387000       7.50606000       2.97540000       5.08859000       1.78741200      -0.88875800       5.02545308       1.89411315      -0.90749895
54
Lattice="8.579999685 0.0 0.0 0.0 8.579999685 0.0 0.0 0.0 8.5799996" Properties=species:S:1:pos:R:3:REF_forces:R:3:MACE_forces:R:3 config_type=Fe34B10Si10 REF_energy=-359.84864784 MACE_energy=-360.4856758529469 pbc="T T T"
Fe       0.39531000       2.37288000       0.87042000       3.27925500       2.43832800      -1.60261100       3.16774128       2.61724963      -1.70867684
Fe       0.75383000       1.65209000       3.11094000       1.30783500      -0.34615400      -0.09267000       1.37790369      -0.69655018       0.04902751
Fe       1.33201000       3.79282000       7.26231000      -2.40668100      -1.18131200       0.32245500      -2.54077644      -1.19439498       0.18662320
Fe       0.64436000       4.41396000       2.97573000       2.42004200      -2.26182600       0.38963900       2.46630838      -2.06232878       0.21567894
Fe       0.14751000       6.42079000       3.51005000      -3.07002100       1.32407200      -2.30638400      -3.17912592       1.34332137      -2.49288620