54
Lattice="8.579999685 0.0 0.0 0.0 8.579999685 0.0 0.0 0.0 8.5799996" Properties=species:S:1:pos:R:3:REF_forces:R:3:MACE_forces:R:3 config_type=Fe34B10Si10 REF_energy=-352.89092233 MACE_energy=-353.2250691445532 pbc="T T T"
Fe       1.46495000       0.71583000       1.12880000       3.73230100      -3.41607500      -3.76209700       3.76605426      -3.52485779      -3.72668129
Fe       0.56244000       2.07917000       1.96452000      -3.31290700       4.06628900       2.54508600      -3.38733355       4.14090386       2.43292628
Fe       0.86636000       2.12990000       5.00906000     -10.85567700      -2.87102900      12.20968700     -10.94195288      -2.93980941      12.16404540
Fe       0.24697000       2.61233000       7.83061000      -0.37811800      -2.03816900      -0.08744800      -0.31059821      -2.06224175       0.13908741
Fe       0.35437000       4.66395000       8.16447000      -1.30300600       1.62250000       0.84662400      -1.36467124       1.64620153       0.81007090
Fe       0.83543000       8.00840000       3.01492000       5.54921000      -2.55787300       0.52513800       5.53399666      -2.63830915       0.45122296
Fe       2.03952000       7.84431000       6.63062000      -4.28706100       1.82495200      -1.68802900      -4.03683665       2.02733498      -1.69078404
Fe       3.34318000       0.11090000       2.96052000      -0.46571400      -0.35056300       0.37864800      -0.46879215      -0.18647662       0.49547831
Fe       3.26317000       2.11539000       1.48699000      -3.47884800      -0.03222100       0.61542300      -3.32742986      -0.28613124       0.22607961
Fe       4.14313000       2.75755000       3.31065000      -0.71378000      -2.73118300       1.93004800      -0.67177773      -2.50130426       1.93091018
Fe       2.55051000       2.67374000       7.19710000      -2.55215900      -0.93589000       1.77261600      -2.31571360      -1.04035760       1.71266707
Fe       3.61327000       2.86500000       5.46497000       1.55763200       0.20514300      -0.56676300       1.47224503       0.32271391      -0.26166965
Fe       2.62400000       4.72550000       1.39174000      -1.08585200      -1.19598700       0.59645400      -1.37635983      -0.90550681       0.73243225
Fe       2.20317000       5.21693000       3.87451000      -3.92870900      -4.38103900      -4.92199500      -3.87985898      -4.38684349      -5.03314815
Fe       3.93082000       4.37819000       8.08226000       1.07616800       0.44807800      -0.99700400       1.06641491       0.26996068      -1.10032298
Fe       2.44961000       7.01753000       1.08943000       0.32119000      -1.55635000       3.27006500       0.46900461      -1.64810604       3.31886262
Fe       3.02500000       6.15780000       5.08193000      -1.08486800       1.64126100       3.95415400      -0.47020619       1.59249453       3.92723960
Fe       5.77712000       0.44616000       0.16142000      -2.43333700       0.07175000       4.13474700      -2.40912045       0.43509204       4.19870179
Fe       5.66964000       0.14892000       2.95259000      -3.67617900       1.90971100       0.12919700      -3.69977962       1.66935870       0.28102431
Fe       5.39484000       2.66317000       1.55162000       4.08183700      -3.39937100       3.88213200       3.93946262      -3.77749591       4.09127366
Fe       5.91309000       3.40423000       8.31953000       8.90196200       5.48305700      -2.72562400       8.71144622       5.53059449      -2.78501500
Fe       4.96126000       4.63305000       3.41410000      -3.60269200      -2.00302700       2.25051900      -3.84340577      -2.23714466       2.38780567
Fe       5.11347000       6.81217000       1.78872000      -0.87770500       0.06714300      -1.61156800      -0.65376657       0.11239008      -1.59522711
Fe       5.00950000       6.45991000       8.24507000      -2.30619500      -0.19808200      -1.52355700      -2.23727645      -0.04698626      -1.64713148
Fe       4.64263000       7.71190000       5.75084000       2.50156800       4.23919200      -1.55456800       2.57829787       4.25251503      -1.68884836
Fe       7.32285000       0.33022000       5.03535000      -0.99210900      -0.59745100       4.73628300      -1.04224469      -0.39013878       4.73956927
Fe       6.75330000       1.32958000       7.05071000       0.53851300       2.01290400       0.36400700       0.46195330       1.87887999       0.35741060
Fe       6.82686000       2.53028000       3.66692000      -0.08907100      -0.12987400      -0.26318300       0.04247548      -0.20331676      -0.24956926
Fe       6.83617000       5.56618000       0.59386000       1.74434500       1.47371700      -3.32847200       1.82510832       1.88376627      -3.42395467
Fe       8.27091000       4.29855000       2.87718000       3.23308900       0.33980500       1.37352500       3.13960942       0.20059910       1.39703438
Fe       6.58774000       4.90718000       4.97515000      -1.87594500       0.58060600      -0.05143700      -2.07645945       0.50537890      -0.65091675
Fe       6.86773000       6.79187000       3.27473000       1.52763600      -2.76254700       0.67579100       1.46515498      -2.45316274       0.34673338
Fe       8.09083000       8.29691000       0.84396000      -4.18921500      -1.95965200       9.56442300      -4.33007189      -2.31530544       9.53306975
Fe       6.62133000       7.67903000       7.47205000      -3.65417600       1.51975600      -3.32990400      -3.95117414       1.32740163      -3.46682227
B        3.45077000       6.81738000       6.75435000       2.04131500      -2.79808300       3.80923700       1.87669932      -2.77178094       3.97780631
B        4.67436000       1.10514000       4.73414000       0.75036200       0.95391600      -0.52852700       0.82970987       0.87281690      -0.40578014
B        6.18153000       2.20088000       5.47737000      -4.49435700      -3.20609500      -2.27763700      -4.67854840      -3.14596166      -2.38005943
B        5.08133000       4.10197000       6.35983000       0.35152900       0.25548900      -0.65354500       0.54830352       0.37434080      -0.62806846
B        4.48663000       4.29393000       1.40792000      -0.27448100       1.04603100       0.21283300      -0.19064437       1.19642744       0.24459124
B        4.96286000       5.88068000       6.14703000       0.60492000      -1.85032800       0.29314600       0.53251103      -1.92739468       0.17079923
B        8.17242000       5.65216000       5.55863000       1.00443800       0.65677900      -0.69824300       0.99167900       0.80010776      -0.32918413
B        7.98743000       6.92663000       6.60530000       5.86774900       2.58695800      -4.05103700       5.80293447       2.35701404      -3.76192760
B        7.10769000       5.72812000       6.91109000      -2.33709700      -3.34606800       1.34633400      -2.13322608      -3.40789729       1.70823377
B        7.81665000       6.81498000       8.33858000       5.04350100      -2.41043400       0.97359300       5.14305521      -2.67630732       0.58012371
Si       0.06983000       0.14925000       7.74742000       4.12649000       2.60901100      -8.87608100       4.07037117       2.60377818      -8.72151603
Si       1.93337000       2.41223000       3.74634000      10.14534600       2.98113100     -12.18526000      10.21679114       3.07518248     -11.99924171
Si       0.75978000       6.02813000       1.69309000      -4.13401100      -0.74920300       1.02787300      -4.14124857      -0.82915840       0.97791055
Si       2.22023000       5.10313000       7.16329000      -1.58663400       1.19675500      -1.89967800      -1.64071471       1.14478279      -1.92826034
Si       3.27754000       8.17117000       8.35443000       4.04667900       4.58101600      -2.24829100       3.93564006       4.59865971      -2.41311718
Si       4.48145000       2.18337000       8.34202000      -5.72220500      -5.96162700      -4.99603400      -5.54577544      -5.97217551      -5.11586588
Si       6.36439000       4.54151000       2.12641000       2.28764700      -2.33178900       1.39384200       2.50262044      -2.11259470       1.35584750
Si       4.52267000       6.51460000       3.75633000       0.42177200       5.22743800       1.25328700       0.12089829       5.31648351       1.33628703
Si       7.68278000       0.22257000       3.11016000      -0.17295300       4.89916800      -3.86478000      -0.26808224       4.81208497      -3.95379347
Si       7.35363000       3.38410000       6.13231000       4.40786200       1.27045000       2.62604800       4.35063249       1.43950092       2.93166064
54
Lattice="8.579999685 0.0 0.0 0.0 8.579999685 0.0 0.0 0.0 8.5799996" Properties=species:S:1:pos:R:3:REF_forces:R:3:MACE_forces:R:3 config_type=Fe34B10Si10 REF_energy=-354.71875992 MACE_energy=-355.32293239380357 pbc="T T T"
Fe       0.43313000       1.19321000       2.96848000       1.47291300       2.99028000       0.61180900       1.49711148       2.96147543       0.31872715
Fe       0.91365000       1.12516000       8.09995000       2.76260400      -2.00335600       1.20968300       2.42269486      -2.03372373       1.08308232
Fe       1.17142000       2.67870000       5.23446000      -1.90323000       6.04651700       0.58026800      -1.76600331       6.09655864       0.44088142
Fe       0.60772000       3.85484000       0.87278000       2.66909500       4.89444800       4.53699300       2.52605270       4.94738455       4.16497070
Fe       1.41565000       3.44858000       3.01161000      -0.29549500       2.03729500      -0.74017400      -0.09849063       1.91472993      -0.69092251
Fe       0.04226000       2.91249000       8.09734000      -3.39897200      -2.84207300      -2.69442200      -2.78335569      -2.82807261      -2.30959235
Fe       1.33282000       7.09057000       5.22634000      -0.45239700      -1.35392500       0.92503500      -0.22434503      -1.51692478       0.96776768
Fe       2.06045000       7.92051000       0.98063000      -3.11321000      -0.30108300      -2.49280600      -3.10535118      -0.40461976      -2.37454681
Fe       2.03627000       8.24295000       3.50701000      -1.42216600       4.38122900       0.88517600      -1.45818726       4.13681299       0.66989906
Fe       0.01253000       8.02686000       7.00667000       2.58679700       0.98610200     -11.80201700       2.44350601       0.93097718     -11.87984560
Fe       3.00353000       0.57289000       6.13981000      -1.03922300       0.18357300       0.93137300      -0.82524425       0.11275103       1.01126780
Fe       3.69949000       2.65196000       7.51811000       2.76433000      -4.34399200      -3.80269000       2.59244499      -4.11883675      -3.68878338
Fe       2.94478000       6.44154000       3.03987000       7.21319500      -3.66655800      -1.17614100       7.04719071      -3.47335885      -1.01173561
Fe       2.94309000       5.75189000       6.64956000      -6.24071800      -0.74678300       3.86021800      -6.50487830      -0.64965320       3.84068076
Fe       3.71160000       8.39321000       1.86324000       2.24845700      -0.43546600       0.28887200       2.17872695      -0.17356660       0.67556205
Fe       4.07810000       8.43915000       4.32840000       2.88035800       1.28304800      -0.49181300       2.86559245       1.37519258      -0.77160442
Fe       5.57499000       0.73262000       6.31633000      -3.12774100      -1.68249800      -0.98058200      -2.83814051      -1.66430164      -0.88306031
Fe       4.70712000       1.94493000       1.65492000      -2.04675700       4.97917500      -3.67899600      -2.11454893       4.75751382      -3.51348379
Fe       4.73401000       4.18392000       1.24748000       0.71501700       1.80608500      -0.06999200       0.69691429       2.02053944      -0.11040627
Fe       4.56687000       4.22266000       4.39618000       0.73801700       3.32591500      -2.10569900       0.47813106       3.15193110      -2.19111595
Fe       4.51224000       4.61167000       7.05684000       2.53211900      -0.41024200       0.53825400       2.98682950      -0.75535917       0.49284402
Fe       6.32808000       6.81945000       4.24288000      -3.20445400      -0.33519400      -1.28892300      -2.81642154      -0.25316599      -1.12034799
Fe       6.22240000       7.17309000       0.16230000      -3.30904600      -2.75215800       1.90373500      -3.48772275      -3.06680282       2.09211629
Fe       4.54224000       7.44382000       7.03838000       0.17895600      -5.02037800      -8.74618400       0.28068460      -5.24897756      -8.95358947
Fe       4.73272000       8.55832000       8.35561000      -0.10588400       8.96287400       6.54083400      -0.17826098       9.50236981       6.22612832
Fe       7.67285000       2.82429000       2.17742000      -2.12886900      -0.76272600      -2.06587500      -2.06857499      -0.80678072      -1.98689949
Fe       6.74071000       1.77406000       4.33655000       0.47479500       0.50025500      -0.42349800       0.08065829       0.46838938      -0.49146850
Fe       7.16362000       1.61896000       6.68131000       5.11373900       1.83737400       0.70818800       4.78679148       1.69394695       0.63393320
Fe       6.73653000       4.13840000       7.84564000       0.19062300       0.32905600       3.59274800       0.09796217       0.50669602       3.64143446
Fe       6.61248000       5.35948000       2.44590000       0.96755600      -0.77403900      -0.47053600       0.84483718      -0.68597486      -0.51277094
Fe       8.39074000       4.95678000       4.82580000       0.50677700       3.21370700       1.22596300       0.58296703       3.11037101       1.10388641
Fe       6.62275000       6.29700000       6.29237000       0.91106900      -0.58785400       1.74696000       0.79047838      -0.46571159       1.60908575
Fe       8.00875000       8.14674000       2.12563000      -1.25903800      -1.94608200      -3.37077000      -0.89232005      -1.94329015      -3.40719161
Fe       7.96861000       8.10559000       4.08816000       1.24434400       0.03207600       4.40361200       0.69709992      -0.02511722       4.51212647
B        3.14587000       1.61638000       2.59818000      -3.96044800      -1.57388800      -2.24367700      -3.97451760      -1.48516047      -1.99945685
B        4.07212000       1.93087000       3.78701000       0.55534200       0.12762300      -3.25123200       0.43263548       0.09978080      -3.23464163
B        2.24412000       1.90783000       4.05913000      -1.80380000      -9.70850100      -5.48536600      -1.83869953      -9.90875835      -5.58008089
B        2.90130000       3.06657000       4.45062000       2.48509300       7.60479000      -1.50334300       2.91691125       7.33594424      -1.48115838
B        2.82587000       3.80138000       5.80651000       0.21675600       2.27927400       3.92227300       0.34614648       2.12992624       3.83692623
B        2.60929000       5.04297000       1.66311000       0.12617300      -0.77075900      -0.46531300      -0.07272268      -0.75064378      -0.36109335
B        2.47198000       4.95014000       4.32601000      -0.76752800      -1.31946700       0.35153300      -0.81019334      -1.22094680       0.30552782
B        2.73354000       7.81887000       7.66829000      -1.47869400      -0.15377200       0.00458000      -1.53992812      -0.18072261       0.17607576
B        5.68071000       2.28134000       7.79544000      -0.95924500       0.41857400       1.11780500      -0.92280905       0.34524209       1.06582330
B        7.77536000       3.70665000       3.76574000      -0.44877700      -1.48394500      -0.38974400      -0.55169682      -1.40793929      -0.03117868
Si       0.79518000       0.92195000       5.77957000      -1.66645900      -4.94136200      -1.10925300      -1.61967086      -5.12267221      -0.94531204
Si       0.88055000       4.20706000       6.73551000       1.15626000       3.58432200      -0.32349000       1.09949408       3.78533302      -0.19248466
Si       1.15025000       6.44729000       2.43826000      -7.77651300      -1.83655100      -1.54918700      -7.91674648      -1.74413868      -1.72864391
Si       2.82820000       3.29548000       0.50208000      -4.05499500       1.58525200       5.32597100      -4.13508729       1.49135656       5.27698675
Si       4.14031000       6.38272000       0.30005000      -2.16949800      -2.44928300       2.57761000      -2.20213759      -2.51342991       2.57232454
Si       3.68345000       6.43010000       5.01209000       3.98893100       0.98565200      -2.13453700       3.85765669       1.18865805      -2.07213174
Si       5.73751000       0.59059000       2.53265000       5.08228400      -4.90021500       2.23852200       5.18103200      -4.93240588       2.49629224
Si       4.51163000       2.47994000       5.36819000       2.60737700      -2.86786400       7.12589500       2.76505455      -2.66794507       6.97489373
Si       6.43436000       3.75222000       5.86206000       1.38008400       0.66155200      -3.64612400       1.58942955       0.80193328      -3.77446506
Si       8.06432000       7.52318000       8.55473000       2.36409700      -3.06603600      11.34847700       2.66102060      -2.81681309      11.10876796
18
Lattice="6.5 0.0 0.0 0.0 6.5 0.0 0.0 0.0 6.5" Properties=species:S:1:pos:R:3:REF_forces:R:3:MACE_forces:R:3 config_type=Fe12B3Si3 REF_energy=-113.87843945 MACE_energy=-113.05438605244265 pbc="T T T"
Fe       5.40234000       5.43492000       1.53729000      -1.39532100       2.04028400       0.71142300      -1.15636672       1.98128643       0.70085640
Fe       2.09750000       2.10361000       0.54730000       2.35673700      -0.33103000       1.27254800       2.52720520      -0.09905516       1.09481076
Fe       2.84360000       1.73250000       3.81271000       2.28004000      -1.18251600      -0.27344700       2.19717660      -1.04209989      -0.15422977
Fe       0.77541000       4.93717000       1.04317000       1.56096300      -3.83372900       1.76362000       1.43055370      -3.61666408       1.48900867
Fe       0.07665000       3.70431000       3.74351000      -0.75952900      -0.39175400      -2.23189700      -1.00707515      -0.41740337      -2.29580782
Fe       4.77171000       3.58949000       4.78220000      -1.99219600      -4.62409700       0.48420500      -1.80286483      -4.61242469       0.42579123
Fe       4.12430000       1.49867000       1.46476000       0.29771700      -2.38794700       0.28396300       0.31543599      -2.66432977       0.12348304
Fe       0.95387000       5.17746000       5.28728000      -0.57085000      -0.50160400      -1.80733600      -0.94490898      -0.69774919      -1.30096526
Fe       1.93602000       3.09888000       2.36598000      -0.08855100       0.43128300      -0.27209000      -0.13620272       0.61009680      -0.40231965
Fe       5.69037000       1.28357000       4.20026000      -0.40866000      -0.49067900       0.18976600      -0.66960730      -0.26965449       0.17332193
Fe       1.94321000       2.86141000       5.39871000      -0.55906500       0.73218900      -1.80086600      -0.61543902       0.80541342      -1.84680110
Fe       4.33122000       5.38124000       5.25469000      -0.73272900       4.56545400       1.52017900      -0.70975478       4.41603758       1.53550645
B        0.37598000       1.64060000       1.21420000      -3.21263000       2.85095800       0.76078000      -3.09594962       2.70658872       0.91937250
B        1.88110000       4.04794000       3.96741000       2.48956600       2.45119300      -0.32261600       2.68849267       2.29656352      -0.38686993
B        3.63878000       0.94242000       5.41981000      -0.01444500       0.67937600       0.95779200       0.15708075       0.82014405       1.05659773
Si       1.19380000       0.26963000       0.19686000       0.54051800       0.24528300      -1.93219100       0.68243586       0.02397694      -1.91821470
Si       4.57825000       3.47658000       1.16117000       0.15934200       1.26766700      -0.81102600       0.19810361       1.42696957      -0.71351217
Si       1.09558000       0.76720000       2.75124000       0.04909300      -1.52033200       1.50719200      -0.05831527      -1.66769641       1.49997169
54
Lattice="8.579999685 0.0 0.0 0.0 8.579999685 0.0 0.0 0.0 8.5799996" Properties=species:S:1:pos:R:3:REF_forces:R:3:MACE_forces:R:3 config_type=Fe34B10Si10 REF_energy=-356.0869274 MACE_energy=-356.81303147387024 pbc="T T T"
Fe       0.92877000       1.08311000       2.12831000      -0.53214900      -1.15432400       0.53007800      -0.69345584      -1.24989654       0.39394268
Fe       1.12794000       0.45096000       7.37327000      -2.86345100       2.18226700       1.45805300      -2.86751486       2.02113722       1.46404443
Fe       0.91289000       3.61082000       1.96264000      -1.66570100       0.50807500      -4.76654600      -1.66085686       0.26056267      -4.75621862
Fe       0.97242000       3.25012000       3.83975000      -0.85629000      -1.23507100      -0.91491200      -1.08541262      -1.18397353      -0.41630216
Fe       1.43574000       3.84332000       5.84621000      -1.94378300      -0.72872400       4.94145300      -2.07567159      -0.52181040       4.71369514
Fe       0.45897000       5.99881000       1.32384000       1.86679900       1.45939200      -0.33976700       1.64212688       1.57962841      -0.19768455
Fe       0.05714000       6.25044000       6.01250000       0.66851500      -0.88142700       1.67028200       0.74559964      -0.74398544       1.80507215
Fe       1.87526000       7.05991000       7.27744000      -5.90957000       6.81146600       5.95768600      -5.77218861       7.19781022       5.93509709
Fe       4.21220000       0.80536000       3.81626000       0.44958900      -1.97725700       0.54591300       0.57427329      -1.91200320       0.43498556
Fe       2.64196000       0.75311000       5.88605000       0.80305000      -0.92688600      -1.50973400       0.62058812      -1.09678557      -1.56697322
Fe       2.51735000       4.27963000       7.86001000      -0.17185400       2.88247300       0.00075600       0.00206923       2.97454366       0.38101440
Fe       2.46175000       4.76211000       4.38544000       2.27245000       6.36429500      -0.60000700       2.25635717       6.39270229      -0.55044600
Fe       3.99132000       4.46692000       6.09268000      -0.21521200      -1.96607600      -0.25853400      -0.23512745      -2.14068401      -0.16055216
Fe       4.03283000       6.20484000       2.50717000       0.32509400      -1.83048700       1.07686200       0.45108922      -1.71708848       1.17488058
Fe       2.62183000       8.12097000       1.25125000      -5.45108600      -1.04608100      -0.88869000      -5.57826846      -1.02619555      -0.55574183
Fe       2.34208000       7.49949000       3.33705000      -1.45221900       0.10179900       1.96325000      -1.29548839       0.22926839       1.58500366
Fe       4.67554000       0.98699000       8.35162000       1.97529500       0.95938300       0.07305200       1.78766292       0.79477655       0.42938389
Fe       4.68615000       2.28426000       1.60336000       6.03713100       4.39249100       1.56082500       6.19649631       4.33532805       1.16195078
Fe       4.95897000       4.28949000       0.91503000       1.24258400       3.77490300      -1.07876200       0.64543921       3.42962040      -1.24182059
Fe       5.62605000       3.84953000       3.25301000      -4.56775200       3.43217100       2.09526400      -4.63228203       3.49158960       1.94400722
Fe       5.63153000       5.70233000       4.67966000       0.04558900       0.36352900      -0.74034800       0.09796371      -0.07514340      -0.61343001
Fe       5.00954000       6.14620000       6.89198000       4.51113600      -2.60361300       1.43664400       4.52140801      -2.43102808       1.37068603
Fe       5.34723000       7.32984000       0.56425000       3.41130600      -7.55812200      -7.44238600       3.31783628      -7.05235137      -7.27318939
Fe       4.57141000       8.20633000       1.67615000      -2.51651100       6.57056000       9.11650700      -2.57970634       6.19038327       8.70849112
Fe       5.67084000       7.83697000       6.02451000      -0.02983000       3.57151200       0.33120700      -0.08925059       3.74064958       0.40291814
Fe       7.65837000       1.05332000       0.64336000       1.95813700       2.93603900      -3.62028800       1.89031604       2.97502461      -3.49756831
Fe       7.23579000       1.49494000       3.62009000       0.88838800      -1.50203300       3.00240400       0.98187094      -1.61345673       3.04576673
Fe       6.96409000       1.59543000       6.70415000       0.40175100      -2.57633900      -0.54943900       0.53621174      -2.53345420      -0.51748244
Fe       6.97946000       3.05325000       2.27831000       3.01329100      -2.85779700      -7.80747400       2.49404709      -2.99726860      -7.20725346
Fe       7.05854000       3.62734000       7.13255000       0.94483300       2.42104600       2.56329500       1.05822950       2.45097883       2.50024530
Fe       7.47490000       4.49325000       0.92243000      -3.13561000       0.06366500       0.11142200      -2.92567111       0.41956079      -0.36195480
Fe       7.76499000       5.40883000       4.05655000       3.42051700      -2.49950500       1.10150300       3.49569905      -2.67998312       1.16087029
Fe       6.91686000       6.16423000       2.38917000      -4.34160700       0.52717700      -3.24358900      -4.29637240       0.65280030      -3.17792836
Fe       7.31773000       7.39473000       4.73130000      -1.41907300       3.06948200       1.38572900      -1.39463297       3.08405162       1.30641488
B        1.63947000       5.44017000       2.85377000      -1.37965300       1.67099600      -0.34434500      -1.43251354       1.76691134      -0.58837075
B        3.47444000       1.29905000       1.69513000      -6.04542900      -7.46227000      -1.52467000      -5.90401943      -7.26846906      -1.19290040
B        2.31673000       1.42955000       3.77944000      -1.85652800      -2.14982900       3.21956500      -1.76999947      -1.96789385       3.50351072
B        3.17088000       0.01260000       8.16689000      -2.14308300      -0.12737100      -3.63430700      -2.10293703       0.07412675      -3.58741422
B        2.48887000       2.23189000       2.44876000      -1.30373000       3.96631200      -0.94871100      -0.86553068       3.90181289      -1.24766852
B        3.55016000       3.21990000       0.17024000       2.13469500      -3.52588700       0.23974700       2.11216287      -3.42653789       0.17576140
B        3.12966000       3.07291000       4.24572000      -6.99085300       0.34377600      -0.16579100      -7.16631329       0.02390874      -0.34915574
B        2.38358000       5.95301000       6.34325000       2.25901800      -8.76611800      -6.31465800       2.26090234      -9.20246597      -6.52682199
B        4.46260000       2.62992000       4.23823000       7.08507900      -1.75449200       0.40993300       7.22995214      -1.70740098       0.46803239
B        7.51183000       3.59374000       3.85724000       1.49621300      -1.20378300       3.39561400       1.51138271      -1.11225022       3.32949154
Si       0.50050000       1.66927000       5.10425000      -1.02554400      -2.67263500       2.61432900      -0.86534995      -2.94565203       2.50140977
Si       0.41923000       4.50138000       8.15701000       0.82744200      -0.47721100      -2.57541600       1.07103368      -0.50347740      -2.80842403
Si       2.90131000       4.25049000       1.93860000       2.71957100       0.04497600      -0.88170100       2.94686972      -0.06025222      -1.13510323
Si       3.74353000       6.85388000       5.19884000      -1.20766000       1.80214700      -2.20114300      -1.10199581       1.93833320      -2.19380927
Si       3.54209000       6.47938000       8.21357000      -0.45014500      -1.75854100       4.24377300      -0.57979889      -2.00072358       4.43156208
Si       4.55252000       1.74669000       6.40118000       0.28733400       0.20348600      -1.69136000       0.28143144       0.18223066      -1.72966587
Si       5.87020000       3.30923000       5.41310000       1.93974000       0.55942400      -1.14043100       1.56126301       0.71870438      -1.17644926
Si       6.68392000       0.09389000       2.07850000      -2.78148600      -1.30329400       2.70552900      -2.46128711      -1.20847558       2.84335261
Si       7.30980000       7.36953000       0.08595000       4.18267400      -0.22507900      -1.67891000       4.12643656      -0.48091878      -1.67048670
Si       8.41387000       7.50606000       2.97540000       5.08859000       1.78741200      -0.88875800       5.01492651       2.03318137      -0.87077467
54
Lattice="8.579999685 0.0 0.0 0.0 8.579999685 0.0 0.0 0.0 8.5799996" Properties=species:S:1:pos:R:3:REF_forces:R:3:MACE_forces:R:3 config_type=Fe34B10Si10 REF_energy=-359.84864784 MACE_energy=-360.2981113486835 pbc="T T T"
Fe       0.39531000       2.37288000       0.87042000       3.27925500       2.43832800      -1.60261100       3.22942672       2.57429644      -1.73133590
Fe       0.75383000       1.65209000       3.11094000       1.30783500      -0.34615400      -0.09267000       1.25872263      -0.77849124       0.23786476
Fe       1.33201000       3.79282000       7.26231000      -2.40668100      -1.18131200       0.32245500      -2.55028973      -1.05865444       0.17142288
Fe       0.64436000       4.41396000       2.97573000       2.42004200      -2.26182600       0.38963900       2.47907704      -2.04341050       0.21740856
Fe       0.14751000       6.42079000       3.51005000      -3.07002100       1.32407200      -2.30638400      -3.11590842       1.37985241      -2.54769097