54
Lattice="8.579999685 0.0 0.0 0.0 8.579999685 0.0 0.0 0.0 8.5799996" Properties=species:S:1:pos:R:3:REF_forces:R:3:MACE_forces:R:3 config_type=Fe34B10Si10 REF_energy=-352.89092233 MACE_energy=-353.26198497320826 pbc="T T T"
Fe       1.46495000       0.71583000       1.12880000       3.73230100      -3.41607500      -3.76209700       3.75181172      -3.50261570      -3.68734427
Fe       0.56244000       2.07917000       1.96452000      -3.31290700       4.06628900       2.54508600      -3.37493248       4.12394889       2.41648965
Fe       0.86636000       2.12990000       5.00906000     -10.85567700      -2.87102900      12.20968700     -10.93509614      -2.93504088      12.17927190
Fe       0.24697000       2.61233000       7.83061000      -0.37811800      -2.03816900      -0.08744800      -0.31983533      -2.07505466       0.12584908
Fe       0.35437000       4.66395000       8.16447000      -1.30300600       1.62250000       0.84662400      -1.36732379       1.67504697       0.81601335
Fe       0.83543000       8.00840000       3.01492000       5.54921000      -2.55787300       0.52513800       5.54829166      -2.64131776       0.44817596
Fe       2.03952000       7.84431000       6.63062000      -4.28706100       1.82495200      -1.68802900      -4.02324480       2.03061279      -1.69016562
Fe       3.34318000       0.11090000       2.96052000      -0.46571400      -0.35056300       0.37864800      -0.47290947      -0.18165406       0.48954373
Fe       3.26317000       2.11539000       1.48699000      -3.47884800      -0.03222100       0.61542300      -3.32058214      -0.28032242       0.22106853
Fe       4.14313000       2.75755000       3.31065000      -0.71378000      -2.73118300       1.93004800      -0.67769952      -2.48350703       1.91196123
Fe       2.55051000       2.67374000       7.19710000      -2.55215900      -0.93589000       1.77261600      -2.33004740      -1.03722962       1.70897663
Fe       3.61327000       2.86500000       5.46497000       1.55763200       0.20514300      -0.56676300       1.46567791       0.32850725      -0.26706921
Fe       2.62400000       4.72550000       1.39174000      -1.08585200      -1.19598700       0.59645400      -1.37158217      -0.91702039       0.71735011
Fe       2.20317000       5.21693000       3.87451000      -3.92870900      -4.38103900      -4.92199500      -3.85185806      -4.36291548      -5.01290432
Fe       3.93082000       4.37819000       8.08226000       1.07616800       0.44807800      -0.99700400       1.04495187       0.26641979      -1.08181450
Fe       2.44961000       7.01753000       1.08943000       0.32119000      -1.55635000       3.27006500       0.46073194      -1.64293671       3.32441753
Fe       3.02500000       6.15780000       5.08193000      -1.08486800       1.64126100       3.95415400      -0.45084293       1.57626911       3.91113854
Fe       5.77712000       0.44616000       0.16142000      -2.43333700       0.07175000       4.13474700      -2.40734844       0.43458505       4.19300652
Fe       5.66964000       0.14892000       2.95259000      -3.67617900       1.90971100       0.12919700      -3.70191322       1.66085877       0.28265577
Fe       5.39484000       2.66317000       1.55162000       4.08183700      -3.39937100       3.88213200       3.95563945      -3.76401581       4.09980153
Fe       5.91309000       3.40423000       8.31953000       8.90196200       5.48305700      -2.72562400       8.69844303       5.51634327      -2.76873336
Fe       4.96126000       4.63305000       3.41410000      -3.60269200      -2.00302700       2.25051900      -3.85556356      -2.25468735       2.40029492
Fe       5.11347000       6.81217000       1.78872000      -0.87770500       0.06714300      -1.61156800      -0.66278588       0.11929756      -1.59317916
Fe       5.00950000       6.45991000       8.24507000      -2.30619500      -0.19808200      -1.52355700      -2.21645538      -0.03906116      -1.66829900
Fe       4.64263000       7.71190000       5.75084000       2.50156800       4.23919200      -1.55456800       2.57141130       4.24688742      -1.66464735
Fe       7.32285000       0.33022000       5.03535000      -0.99210900      -0.59745100       4.73628300      -1.03745551      -0.38863912       4.74140828
Fe       6.75330000       1.32958000       7.05071000       0.53851300       2.01290400       0.36400700       0.47197188       1.87228684       0.34833220
Fe       6.82686000       2.53028000       3.66692000      -0.08907100      -0.12987400      -0.26318300       0.03257229      -0.19732434      -0.24957697
Fe       6.83617000       5.56618000       0.59386000       1.74434500       1.47371700      -3.32847200       1.82067403       1.86410120      -3.44323447
Fe       8.27091000       4.29855000       2.87718000       3.23308900       0.33980500       1.37352500       3.12880792       0.19051992       1.37904551
Fe       6.58774000       4.90718000       4.97515000      -1.87594500       0.58060600      -0.05143700      -2.06861853       0.51916881      -0.63343315
Fe       6.86773000       6.79187000       3.27473000       1.52763600      -2.76254700       0.67579100       1.46369264      -2.45615669       0.34731106
Fe       8.09083000       8.29691000       0.84396000      -4.18921500      -1.95965200       9.56442300      -4.30658658      -2.31098044       9.55929294
Fe       6.62133000       7.67903000       7.47205000      -3.65417600       1.51975600      -3.32990400      -3.96601601       1.32700215      -3.46638058
B        3.45077000       6.81738000       6.75435000       2.04131500      -2.79808300       3.80923700       1.88883894      -2.77595946       3.96786906
B        4.67436000       1.10514000       4.73414000       0.75036200       0.95391600      -0.52852700       0.82590191       0.87890579      -0.40975574
B        6.18153000       2.20088000       5.47737000      -4.49435700      -3.20609500      -2.27763700      -4.66846301      -3.15825750      -2.39497760
B        5.08133000       4.10197000       6.35983000       0.35152900       0.25548900      -0.65354500       0.53421307       0.37575130      -0.62044746
B        4.48663000       4.29393000       1.40792000      -0.27448100       1.04603100       0.21283300      -0.20438817       1.18814287       0.24259673
B        4.96286000       5.88068000       6.14703000       0.60492000      -1.85032800       0.29314600       0.51222134      -1.92192794       0.15279304
B        8.17242000       5.65216000       5.55863000       1.00443800       0.65677900      -0.69824300       1.00024527       0.79468759      -0.30283425
B        7.98743000       6.92663000       6.60530000       5.86774900       2.58695800      -4.05103700       5.78411808       2.33225213      -3.74963175
B        7.10769000       5.72812000       6.91109000      -2.33709700      -3.34606800       1.34633400      -2.12557395      -3.39259852       1.67072167
B        7.81665000       6.81498000       8.33858000       5.04350100      -2.41043400       0.97359300       5.11462702      -2.66103951       0.59034331
Si       0.06983000       0.14925000       7.74742000       4.12649000       2.60901100      -8.87608100       4.04743321       2.61045282      -8.74600868
Si       1.93337000       2.41223000       3.74634000      10.14534600       2.98113100     -12.18526000      10.23102612       3.07020813     -12.00585244
Si       0.75978000       6.02813000       1.69309000      -4.13401100      -0.74920300       1.02787300      -4.14150723      -0.83040921       0.98080286
Si       2.22023000       5.10313000       7.16329000      -1.58663400       1.19675500      -1.89967800      -1.64077094       1.14590573      -1.90937704
Si       3.27754000       8.17117000       8.35443000       4.04667900       4.58101600      -2.24829100       3.93003371       4.58701606      -2.40754501
Si       4.48145000       2.18337000       8.34202000      -5.72220500      -5.96162700      -4.99603400      -5.51853602      -5.96347017      -5.12523430
Si       6.36439000       4.54151000       2.12641000       2.28764700      -2.33178900       1.39384200       2.51833635      -2.11851447       1.34510458
Si       4.52267000       6.51460000       3.75633000       0.42177200       5.22743800       1.25328700       0.11963857       5.30516704       1.34183708
Si       7.68278000       0.22257000       3.11016000      -0.17295300       4.89916800      -3.86478000      -0.26577126       4.81768084      -3.94944550
Si       7.35363000       3.38410000       6.13231000       4.40786200       1.27045000       2.62604800       4.36239667       1.43463034       2.93441843
54
Lattice="8.579999685 0.0 0.0 0.0 8.579999685 0.0 0.0 0.0 8.5799996" Properties=species:S:1:pos:R:3:REF_forces:R:3:MACE_forces:R:3 config_type=Fe34B10Si10 REF_energy=-354.71875992 MACE_energy=-355.3531123591194 pbc="T T T"
Fe       0.43313000       1.19321000       2.96848000       1.47291300       2.99028000       0.61180900       1.47218961       2.93463775       0.32192367
Fe       0.91365000       1.12516000       8.09995000       2.76260400      -2.00335600       1.20968300       2.41642500      -1.98747799       1.07214367
Fe       1.17142000       2.67870000       5.23446000      -1.90323000       6.04651700       0.58026800      -1.75388548       6.11341566       0.42317349
Fe       0.60772000       3.85484000       0.87278000       2.66909500       4.89444800       4.53699300       2.54120630       4.98278875       4.18453795
Fe       1.41565000       3.44858000       3.01161000      -0.29549500       2.03729500      -0.74017400      -0.09233758       1.92175996      -0.68370614
Fe       0.04226000       2.91249000       8.09734000      -3.39897200      -2.84207300      -2.69442200      -2.79361851      -2.87932020      -2.36205815
Fe       1.33282000       7.09057000       5.22634000      -0.45239700      -1.35392500       0.92503500      -0.22499142      -1.51296994       0.96937523
Fe       2.06045000       7.92051000       0.98063000      -3.11321000      -0.30108300      -2.49280600      -3.14193793      -0.40876793      -2.40332154
Fe       2.03627000       8.24295000       3.50701000      -1.42216600       4.38122900       0.88517600      -1.47218417       4.12719762       0.65959852
Fe       0.01253000       8.02686000       7.00667000       2.58679700       0.98610200     -11.80201700       2.44367620       0.91794757     -11.87528716
Fe       3.00353000       0.57289000       6.13981000      -1.03922300       0.18357300       0.93137300      -0.80290333       0.11282815       1.01329686
Fe       3.69949000       2.65196000       7.51811000       2.76433000      -4.34399200      -3.80269000       2.59522661      -4.11336902      -3.68194553
Fe       2.94478000       6.44154000       3.03987000       7.21319500      -3.66655800      -1.17614100       7.02943132      -3.46592561      -1.01892453
Fe       2.94309000       5.75189000       6.64956000      -6.24071800      -0.74678300       3.86021800      -6.47662178      -0.64877546       3.86789932
Fe       3.71160000       8.39321000       1.86324000       2.24845700      -0.43546600       0.28887200       2.21386980      -0.16112925       0.68907625
Fe       4.07810000       8.43915000       4.32840000       2.88035800       1.28304800      -0.49181300       2.85832291       1.36962639      -0.76322549
Fe       5.57499000       0.73262000       6.31633000      -3.12774100      -1.68249800      -0.98058200      -2.83994832      -1.67829500      -0.90155023
Fe       4.70712000       1.94493000       1.65492000      -2.04675700       4.97917500      -3.67899600      -2.13762484       4.76668645      -3.48067891
Fe       4.73401000       4.18392000       1.24748000       0.71501700       1.80608500      -0.06999200       0.70769601       2.02241067      -0.10571552
Fe       4.56687000       4.22266000       4.39618000       0.73801700       3.32591500      -2.10569900       0.49551216       3.16015601      -2.19211698
Fe       4.51224000       4.61167000       7.05684000       2.53211900      -0.41024200       0.53825400       2.97721728      -0.75285635       0.48868777
Fe       6.32808000       6.81945000       4.24288000      -3.20445400      -0.33519400      -1.28892300      -2.79999137      -0.24530344      -1.10833570
Fe       6.22240000       7.17309000       0.16230000      -3.30904600      -2.75215800       1.90373500      -3.50810755      -3.04129681       2.08342948
Fe       4.54224000       7.44382000       7.03838000       0.17895600      -5.02037800      -8.74618400       0.28371632      -5.24199556      -8.93473109
Fe       4.73272000       8.55832000       8.35561000      -0.10588400       8.96287400       6.54083400      -0.19600600       9.47290933       6.21184142
Fe       7.67285000       2.82429000       2.17742000      -2.12886900      -0.76272600      -2.06587500      -2.06488101      -0.82053248      -1.98364165
Fe       6.74071000       1.77406000       4.33655000       0.47479500       0.50025500      -0.42349800       0.07767612       0.45300037      -0.47547051
Fe       7.16362000       1.61896000       6.68131000       5.11373900       1.83737400       0.70818800       4.77442797       1.68338115       0.63722706
Fe       6.73653000       4.13840000       7.84564000       0.19062300       0.32905600       3.59274800       0.11500721       0.49812423       3.63869399
Fe       6.61248000       5.35948000       2.44590000       0.96755600      -0.77403900      -0.47053600       0.84351891      -0.67592787      -0.50756021
Fe       8.39074000       4.95678000       4.82580000       0.50677700       3.21370700       1.22596300       0.60049699       3.11071378       1.09541604
Fe       6.62275000       6.29700000       6.29237000       0.91106900      -0.58785400       1.74696000       0.79832526      -0.47120778       1.60628783
Fe       8.00875000       8.14674000       2.12563000      -1.25903800      -1.94608200      -3.37077000      -0.88767595      -1.94155656      -3.39324770
Fe       7.96861000       8.10559000       4.08816000       1.24434400       0.03207600       4.40361200       0.70077115      -0.00449773       4.50642222
B        3.14587000       1.61638000       2.59818000      -3.96044800      -1.57388800      -2.24367700      -3.97214273      -1.48946353      -2.02613534
B        4.07212000       1.93087000       3.78701000       0.55534200       0.12762300      -3.25123200       0.44419521       0.12326568      -3.20684300
B        2.24412000       1.90783000       4.05913000      -1.80380000      -9.70850100      -5.48536600      -1.84508254      -9.92520403      -5.58429036
B        2.90130000       3.06657000       4.45062000       2.48509300       7.60479000      -1.50334300       2.91706342       7.31275859      -1.51354594
B        2.82587000       3.80138000       5.80651000       0.21675600       2.27927400       3.92227300       0.33296915       2.12917057       3.85790719
B        2.60929000       5.04297000       1.66311000       0.12617300      -0.77075900      -0.46531300      -0.06676743      -0.76213764      -0.38283902
B        2.47198000       4.95014000       4.32601000      -0.76752800      -1.31946700       0.35153300      -0.81247073      -1.21252533       0.33158513
B        2.73354000       7.81887000       7.66829000      -1.47869400      -0.15377200       0.00458000      -1.52925205      -0.17582064       0.18450794
B        5.68071000       2.28134000       7.79544000      -0.95924500       0.41857400       1.11780500      -0.93207134       0.34223695       1.05825320
B        7.77536000       3.70665000       3.76574000      -0.44877700      -1.48394500      -0.38974400      -0.55483665      -1.40343814      -0.03715612
Si       0.79518000       0.92195000       5.77957000      -1.66645900      -4.94136200      -1.10925300      -1.62230152      -5.10917521      -0.94614441
Si       0.88055000       4.20706000       6.73551000       1.15626000       3.58432200      -0.32349000       1.10071085       3.77209012      -0.20225046
Si       1.15025000       6.44729000       2.43826000      -7.77651300      -1.83655100      -1.54918700      -7.90812488      -1.73450048      -1.72066130
Si       2.82820000       3.29548000       0.50208000      -4.05499500       1.58525200       5.32597100      -4.13055737       1.47757930       5.27125274
Si       4.14031000       6.38272000       0.30005000      -2.16949800      -2.44928300       2.57761000      -2.21481173      -2.50013444       2.56080841
Si       3.68345000       6.43010000       5.01209000       3.98893100       0.98565200      -2.13453700       3.85007992       1.18125583      -2.07110912
Si       5.73751000       0.59059000       2.53265000       5.08228400      -4.90021500       2.23852200       5.15668950      -4.92163772       2.49442767
Si       4.51163000       2.47994000       5.36819000       2.60737700      -2.86786400       7.12589500       2.76698582      -2.68016964       6.98813438
Si       6.43436000       3.75222000       5.86206000       1.38008400       0.66155200      -3.64612400       1.58147793       0.78880853      -3.76619214
Si       8.06432000       7.52318000       8.55473000       2.36409700      -3.06603600      11.34847700       2.68624929      -2.80933765      11.11277683
18
Lattice="6.5 0.0 0.0 0.0 6.5 0.0 0.0 0.0 6.5" Properties=species:S:1:pos:R:3:REF_forces:R:3:MACE_forces:R:3 config_type=Fe12B3Si3 REF_energy=-113.87843945 MACE_energy=-113.05264135370805 pbc="T T T"
Fe       5.40234000       5.43492000       1.53729000      -1.39532100       2.04028400       0.71142300      -1.11752802       1.94927718       0.69503326
Fe       2.09750000       2.10361000       0.54730000       2.35673700      -0.33103000       1.27254800       2.51971666      -0.08222476       1.12660393
Fe       2.84360000       1.73250000       3.81271000       2.28004000      -1.18251600      -0.27344700       2.18281311      -1.01488808      -0.16453915
Fe       0.77541000       4.93717000       1.04317000       1.56096300      -3.83372900       1.76362000       1.38900405      -3.58088759       1.49261079
Fe       0.07665000       3.70431000       3.74351000      -0.75952900      -0.39175400      -2.23189700      -1.04033912      -0.43734053      -2.28861116
Fe       4.77171000       3.58949000       4.78220000      -1.99219600      -4.62409700       0.48420500      -1.77381701      -4.57889164       0.41491757
Fe       4.12430000       1.49867000       1.46476000       0.29771700      -2.38794700       0.28396300       0.31323259      -2.65531374       0.10940106
Fe       0.95387000       5.17746000       5.28728000      -0.57085000      -0.50160400      -1.80733600      -0.95230262      -0.70874516      -1.29934453
Fe       1.93602000       3.09888000       2.36598000      -0.08855100       0.43128300      -0.27209000      -0.15517017       0.59502395      -0.42242867
Fe       5.69037000       1.28357000       4.20026000      -0.40866000      -0.49067900       0.18976600      -0.70412589      -0.26806907       0.20791381
Fe       1.94321000       2.86141000       5.39871000      -0.55906500       0.73218900      -1.80086600      -0.58093030       0.77593632      -1.86839675
Fe       4.33122000       5.38124000       5.25469000      -0.73272900       4.56545400       1.52017900      -0.67645972       4.38440116       1.53365964
B        0.37598000       1.64060000       1.21420000      -3.21263000       2.85095800       0.76078000      -3.07492734       2.71558221       0.89969723
B        1.88110000       4.04794000       3.96741000       2.48956600       2.45119300      -0.32261600       2.69218897       2.30783350      -0.35576466
B        3.63878000       0.94242000       5.41981000      -0.01444500       0.67937600       0.95779200       0.15825552       0.82715475       1.07532309
Si       1.19380000       0.26963000       0.19686000       0.54051800       0.24528300      -1.93219100       0.68354585       0.00682660      -1.91603952
Si       4.57825000       3.47658000       1.16117000       0.15934200       1.26766700      -0.81102600       0.19718959       1.43586194      -0.72475195
Si       1.09558000       0.76720000       2.75124000       0.04909300      -1.52033200       1.50719200      -0.06034616      -1.67153704       1.48471601
54
Lattice="8.579999685 0.0 0.0 0.0 8.579999685 0.0 0.0 0.0 8.5799996" Properties=species:S:1:pos:R:3:REF_forces:R:3:MACE_forces:R:3 config_type=Fe34B10Si10 REF_energy=-356.0869274 MACE_energy=-356.88984712324117 pbc="T T T"
Fe       0.92877000       1.08311000       2.12831000      -0.53214900      -1.15432400       0.53007800      -0.68831426      -1.23800271       0.40702070
Fe       1.12794000       0.45096000       7.37327000      -2.86345100       2.18226700       1.45805300      -2.86144390       2.00942495       1.46210846
Fe       0.91289000       3.61082000       1.96264000      -1.66570100       0.50807500      -4.76654600      -1.66059472       0.28277953      -4.76486987
Fe       0.97242000       3.25012000       3.83975000      -0.85629000      -1.23507100      -0.91491200      -1.07265958      -1.19183767      -0.36769705
Fe       1.43574000       3.84332000       5.84621000      -1.94378300      -0.72872400       4.94145300      -2.06852062      -0.53076333       4.68736015
Fe       0.45897000       5.99881000       1.32384000       1.86679900       1.45939200      -0.33976700       1.64540483       1.57881146      -0.17822069
Fe       0.05714000       6.25044000       6.01250000       0.66851500      -0.88142700       1.67028200       0.74573977      -0.75132853       1.78851234
Fe       1.87526000       7.05991000       7.27744000      -5.90957000       6.81146600       5.95768600      -5.76724715       7.20036387       5.93690335
Fe       4.21220000       0.80536000       3.81626000       0.44958900      -1.97725700       0.54591300       0.55860896      -1.90922704       0.44121830
Fe       2.64196000       0.75311000       5.88605000       0.80305000      -0.92688600      -1.50973400       0.59977811      -1.09316229      -1.57013232
Fe       2.51735000       4.27963000       7.86001000      -0.17185400       2.88247300       0.00075600       0.01040626       2.96449676       0.34850417
Fe       2.46175000       4.76211000       4.38544000       2.27245000       6.36429500      -0.60000700       2.23047022       6.35200523      -0.56047531
Fe       3.99132000       4.46692000       6.09268000      -0.21521200      -1.96607600      -0.25853400      -0.22796888      -2.14095779      -0.16561291
Fe       4.03283000       6.20484000       2.50717000       0.32509400      -1.83048700       1.07686200       0.44028492      -1.73028750       1.16577681
Fe       2.62183000       8.12097000       1.25125000      -5.45108600      -1.04608100      -0.88869000      -5.55779289      -1.04270599      -0.56075877
Fe       2.34208000       7.49949000       3.33705000      -1.45221900       0.10179900       1.96325000      -1.26894360       0.22458605       1.58164484
Fe       4.67554000       0.98699000       8.35162000       1.97529500       0.95938300       0.07305200       1.74872449       0.79460289       0.41466977
Fe       4.68615000       2.28426000       1.60336000       6.03713100       4.39249100       1.56082500       6.19322986       4.34963506       1.16190011
Fe       4.95897000       4.28949000       0.91503000       1.24258400       3.77490300      -1.07876200       0.67400618       3.44866335      -1.24520179
Fe       5.62605000       3.84953000       3.25301000      -4.56775200       3.43217100       2.09526400      -4.61220400       3.49371461       1.92479448
Fe       5.63153000       5.70233000       4.67966000       0.04558900       0.36352900      -0.74034800       0.07611479      -0.06737744      -0.60267749
Fe       5.00954000       6.14620000       6.89198000       4.51113600      -2.60361300       1.43664400       4.53518014      -2.41426167       1.37365406
Fe       5.34723000       7.32984000       0.56425000       3.41130600      -7.55812200      -7.44238600       3.33455423      -7.02849171      -7.24625380
Fe       4.57141000       8.20633000       1.67615000      -2.51651100       6.57056000       9.11650700      -2.60914280       6.16063353       8.68948801
Fe       5.67084000       7.83697000       6.02451000      -0.02983000       3.57151200       0.33120700      -0.09363920       3.70939885       0.40204358
Fe       7.65837000       1.05332000       0.64336000       1.95813700       2.93603900      -3.62028800       1.88828105       2.97274849      -3.50405225
Fe       7.23579000       1.49494000       3.62009000       0.88838800      -1.50203300       3.00240400       0.97267312      -1.60043941       3.05103336
Fe       6.96409000       1.59543000       6.70415000       0.40175100      -2.57633900      -0.54943900       0.53011141      -2.52979836      -0.51611075
Fe       6.97946000       3.05325000       2.27831000       3.01329100      -2.85779700      -7.80747400       2.47773340      -2.97499984      -7.21454468
Fe       7.05854000       3.62734000       7.13255000       0.94483300       2.42104600       2.56329500       1.04223058       2.44517234       2.49030391
Fe       7.47490000       4.49325000       0.92243000      -3.13561000       0.06366500       0.11142200      -2.92570711       0.42224653      -0.33783958
Fe       7.76499000       5.40883000       4.05655000       3.42051700      -2.49950500       1.10150300       3.49799370      -2.67076777       1.14691996
Fe       6.91686000       6.16423000       2.38917000      -4.34160700       0.52717700      -3.24358900      -4.30030811       0.64324236      -3.17597775
Fe       7.31773000       7.39473000       4.73130000      -1.41907300       3.06948200       1.38572900      -1.41023467       3.07583330       1.32285807
B        1.63947000       5.44017000       2.85377000      -1.37965300       1.67099600      -0.34434500      -1.45129383       1.76999973      -0.60633909
B        3.47444000       1.29905000       1.69513000      -6.04542900      -7.46227000      -1.52467000      -5.89983781      -7.26214890      -1.18660915
B        2.31673000       1.42955000       3.77944000      -1.85652800      -2.14982900       3.21956500      -1.76227156      -1.97402429       3.49235416
B        3.17088000       0.01260000       8.16689000      -2.14308300      -0.12737100      -3.63430700      -2.07503930       0.08769493      -3.59217851
B        2.48887000       2.23189000       2.44876000      -1.30373000       3.96631200      -0.94871100      -0.87891526       3.89095921      -1.25634158
B        3.55016000       3.21990000       0.17024000       2.13469500      -3.52588700       0.23974700       2.14380712      -3.43030788       0.21110517
B        3.12966000       3.07291000       4.24572000      -6.99085300       0.34377600      -0.16579100      -7.17104561       0.06410341      -0.31741062
B        2.38358000       5.95301000       6.34325000       2.25901800      -8.76611800      -6.31465800       2.25098208      -9.20683622      -6.54151344
B        4.46260000       2.62992000       4.23823000       7.08507900      -1.75449200       0.40993300       7.23040428      -1.73688748       0.46693997
B        7.51183000       3.59374000       3.85724000       1.49621300      -1.20378300       3.39561400       1.51145403      -1.10926280       3.30415317
Si       0.50050000       1.66927000       5.10425000      -1.02554400      -2.67263500       2.61432900      -0.84948722      -2.93313040       2.51809719
Si       0.41923000       4.50138000       8.15701000       0.82744200      -0.47721100      -2.57541600       1.06368976      -0.48194015      -2.80329744
Si       2.90131000       4.25049000       1.93860000       2.71957100       0.04497600      -0.88170100       2.93582972      -0.05324322      -1.12347494
Si       3.74353000       6.85388000       5.19884000      -1.20766000       1.80214700      -2.20114300      -1.09153947       1.96171821      -2.19048928
Si       3.54209000       6.47938000       8.21357000      -0.45014500      -1.75854100       4.24377300      -0.56881732      -2.00626022       4.43622905
Si       4.55252000       1.74669000       6.40118000       0.28733400       0.20348600      -1.69136000       0.28361126       0.18311228      -1.71356515
Si       5.87020000       3.30923000       5.41310000       1.93974000       0.55942400      -1.14043100       1.56998206       0.72216504      -1.15525617
Si       6.68392000       0.09389000       2.07850000      -2.78148600      -1.30329400       2.70552900      -2.47097172      -1.21256332       2.83985599
Si       7.30980000       7.36953000       0.08595000       4.18267400      -0.22507900      -1.67891000       4.12537851      -0.49967368      -1.67889027
Si       8.41387000       7.50606000       2.97540000       5.08859000       1.78741200      -0.88875800       5.02727575       2.01257564      -0.88965850
54
Lattice="8.579999685 0.0 0.0 0.0 8.579999685 0.0 0.0 0.0 8.5799996" Properties=species:S:1:pos:R:3:REF_forces:R:3:MACE_forces:R:3 config_type=Fe34B10Si10 REF_energy=-359.84864784 MACE_energy=-360.3215325535262 pbc="T T T"
Fe       0.39531000       2.37288000       0.87042000       3.27925500       2.43832800      -1.60261100       3.21507457       2.61415259      -1.74907474
Fe       0.75383000       1.65209000       3.11094000       1.30783500      -0.34615400      -0.09267000       1.26680983      -0.78913689       0.21794136
Fe       1.33201000       3.79282000       7.26231000      -2.40668100      -1.18131200       0.32245500      -2.52815486      -1.05607656       0.18949207
Fe       0.64436000       4.41396000       2.97573000       2.42004200      -2.26182600       0.38963900       2.47404945      -2.05704294       0.22302106
Fe       0.14751000       6.42079000       3.51005000      -3.07002100       1.32407200      -2.30638400      -3.11262682       1.37345429      -2.52208006