54
Lattice="8.579999685 0.0 0.0 0.0 8.579999685 0.0 0.0 0.0 8.5799996" Properties=species:S:1:pos:R:3:REF_forces:R:3:MACE_forces:R:3 config_type=Fe34B10Si10 REF_energy=-352.89092233 MACE_energy=-353.2248672615487 pbc="T T T"
Fe       1.46495000       0.71583000       1.12880000       3.73230100      -3.41607500      -3.76209700       3.68160993      -3.48657832      -3.54200777
Fe       0.56244000       2.07917000       1.96452000      -3.31290700       4.06628900       2.54508600      -3.23778869       3.96297311       2.32704203
Fe       0.86636000       2.12990000       5.00906000     -10.85567700      -2.87102900      12.20968700     -10.91763802      -2.96055412      12.20601699
Fe       0.24697000       2.61233000       7.83061000      -0.37811800      -2.03816900      -0.08744800      -0.41244405      -1.91255108       0.07457496
Fe       0.35437000       4.66395000       8.16447000      -1.30300600       1.62250000       0.84662400      -1.33047479       1.63289156       0.78234006
Fe       0.83543000       8.00840000       3.01492000       5.54921000      -2.55787300       0.52513800       5.71501757      -2.53768094       0.39692652
Fe       2.03952000       7.84431000       6.63062000      -4.28706100       1.82495200      -1.68802900      -4.08369451       1.97402372      -1.63450480
Fe       3.34318000       0.11090000       2.96052000      -0.46571400      -0.35056300       0.37864800      -0.50472987      -0.22234106       0.47843933
Fe       3.26317000       2.11539000       1.48699000      -3.47884800      -0.03222100       0.61542300      -3.40261662      -0.31053588       0.17962516
Fe       4.14313000       2.75755000       3.31065000      -0.71378000      -2.73118300       1.93004800      -0.63020783      -2.41354181       1.88141066
Fe       2.55051000       2.67374000       7.19710000      -2.55215900      -0.93589000       1.77261600      -2.29869827      -1.13358094       1.71615947
Fe       3.61327000       2.86500000       5.46497000       1.55763200       0.20514300      -0.56676300       1.47726267       0.27631825      -0.30851522
Fe       2.62400000       4.72550000       1.39174000      -1.08585200      -1.19598700       0.59645400      -1.35071376      -0.98879280       0.69352089
Fe       2.20317000       5.21693000       3.87451000      -3.92870900      -4.38103900      -4.92199500      -3.86733089      -4.37335270      -4.97531873
Fe       3.93082000       4.37819000       8.08226000       1.07616800       0.44807800      -0.99700400       1.01727401       0.29644739      -0.92974266
Fe       2.44961000       7.01753000       1.08943000       0.32119000      -1.55635000       3.27006500       0.42742004      -1.61823163       3.26689769
Fe       3.02500000       6.15780000       5.08193000      -1.08486800       1.64126100       3.95415400      -0.61672966       1.64495173       4.05403330
Fe       5.77712000       0.44616000       0.16142000      -2.43333700       0.07175000       4.13474700      -2.46598251       0.41721805       4.21312938
Fe       5.66964000       0.14892000       2.95259000      -3.67617900       1.90971100       0.12919700      -3.67901535       1.63586245       0.32073515
Fe       5.39484000       2.66317000       1.55162000       4.08183700      -3.39937100       3.88213200       4.04952103      -3.63756268       4.03261754
Fe       5.91309000       3.40423000       8.31953000       8.90196200       5.48305700      -2.72562400       8.68747558       5.44699727      -2.68420247
Fe       4.96126000       4.63305000       3.41410000      -3.60269200      -2.00302700       2.25051900      -3.71947776      -2.22159508       2.39906852
Fe       5.11347000       6.81217000       1.78872000      -0.87770500       0.06714300      -1.61156800      -0.69374716       0.06103348      -1.57748225
Fe       5.00950000       6.45991000       8.24507000      -2.30619500      -0.19808200      -1.52355700      -2.28160957       0.01078503      -1.68316184
Fe       4.64263000       7.71190000       5.75084000       2.50156800       4.23919200      -1.55456800       2.59547826       4.29004291      -1.59655498
Fe       7.32285000       0.33022000       5.03535000      -0.99210900      -0.59745100       4.73628300      -1.02367509      -0.36438774       4.81161454
Fe       6.75330000       1.32958000       7.05071000       0.53851300       2.01290400       0.36400700       0.55778770       1.82073671       0.29543835
Fe       6.82686000       2.53028000       3.66692000      -0.08907100      -0.12987400      -0.26318300      -0.05226271      -0.20380748      -0.26391407
Fe       6.83617000       5.56618000       0.59386000       1.74434500       1.47371700      -3.32847200       1.81190901       1.63632379      -3.43614440
Fe       8.27091000       4.29855000       2.87718000       3.23308900       0.33980500       1.37352500       3.20345538       0.20343371       1.31983775
Fe       6.58774000       4.90718000       4.97515000      -1.87594500       0.58060600      -0.05143700      -2.13721760       0.63135712      -0.32392486
Fe       6.86773000       6.79187000       3.27473000       1.52763600      -2.76254700       0.67579100       1.37928773      -2.41674202       0.38755551
Fe       8.09083000       8.29691000       0.84396000      -4.18921500      -1.95965200       9.56442300      -4.16584932      -2.31484488       9.67970788
Fe       6.62133000       7.67903000       7.47205000      -3.65417600       1.51975600      -3.32990400      -3.89312219       1.21950274      -3.51306540
B        3.45077000       6.81738000       6.75435000       2.04131500      -2.79808300       3.80923700       1.92256403      -2.72246740       3.94610969
B        4.67436000       1.10514000       4.73414000       0.75036200       0.95391600      -0.52852700       0.82352156       0.87458854      -0.45908324
B        6.18153000       2.20088000       5.47737000      -4.49435700      -3.20609500      -2.27763700      -4.72365241      -3.15602850      -2.48550960
B        5.08133000       4.10197000       6.35983000       0.35152900       0.25548900      -0.65354500       0.57436097       0.33241361      -0.61748528
B        4.48663000       4.29393000       1.40792000      -0.27448100       1.04603100       0.21283300      -0.27141397       1.21339934       0.15739491
B        4.96286000       5.88068000       6.14703000       0.60492000      -1.85032800       0.29314600       0.61679577      -1.92267387       0.13510651
B        8.17242000       5.65216000       5.55863000       1.00443800       0.65677900      -0.69824300       1.04634642       0.71036668      -0.34874756
B        7.98743000       6.92663000       6.60530000       5.86774900       2.58695800      -4.05103700       5.84014043       2.49705174      -3.72331329
B        7.10769000       5.72812000       6.91109000      -2.33709700      -3.34606800       1.34633400      -2.32316116      -3.49976202       1.33585285
B        7.81665000       6.81498000       8.33858000       5.04350100      -2.41043400       0.97359300       5.14578543      -2.42038813       0.73455191
Si       0.06983000       0.14925000       7.74742000       4.12649000       2.60901100      -8.87608100       3.95792649       2.64077068      -8.87386538
Si       1.93337000       2.41223000       3.74634000      10.14534600       2.98113100     -12.18526000      10.22882228       3.10643380     -12.00261532
Si       0.75978000       6.02813000       1.69309000      -4.13401100      -0.74920300       1.02787300      -4.11617239      -0.87399253       1.02768309
Si       2.22023000       5.10313000       7.16329000      -1.58663400       1.19675500      -1.89967800      -1.78830406       1.15047842      -1.93438388
Si       3.27754000       8.17117000       8.35443000       4.04667900       4.58101600      -2.24829100       3.90154386       4.53875513      -2.46073659
Si       4.48145000       2.18337000       8.34202000      -5.72220500      -5.96162700      -4.99603400      -5.48570797      -5.81499666      -5.15198399
Si       6.36439000       4.54151000       2.12641000       2.28764700      -2.33178900       1.39384200       2.58915340      -2.23623378       1.27075277
Si       4.52267000       6.51460000       3.75633000       0.42177200       5.22743800       1.25328700       0.14304170       5.36533189       1.38636511
Si       7.68278000       0.22257000       3.11016000      -0.17295300       4.89916800      -3.86478000      -0.29624018       4.77747537      -3.98084363
Si       7.35363000       3.38410000       6.13231000       4.40786200       1.27045000       2.62604800       4.37617712       1.39525986       2.99659873
54
Lattice="8.579999685 0.0 0.0 0.0 8.579999685 0.0 0.0 0.0 8.5799996" Properties=species:S:1:pos:R:3:REF_forces:R:3:MACE_forces:R:3 config_type=Fe34B10Si10 REF_energy=-354.71875992 MACE_energy=-355.314432359355 pbc="T T T"
Fe       0.43313000       1.19321000       2.96848000       1.47291300       2.99028000       0.61180900       1.63890442       2.97867082       0.32714365
Fe       0.91365000       1.12516000       8.09995000       2.76260400      -2.00335600       1.20968300       2.54026286      -2.12219471       1.10729821
Fe       1.17142000       2.67870000       5.23446000      -1.90323000       6.04651700       0.58026800      -1.69066078       6.30345624       0.62534659
Fe       0.60772000       3.85484000       0.87278000       2.66909500       4.89444800       4.53699300       2.66015922       5.12866829       4.26048437
Fe       1.41565000       3.44858000       3.01161000      -0.29549500       2.03729500      -0.74017400      -0.26997654       1.92278854      -0.67875783
Fe       0.04226000       2.91249000       8.09734000      -3.39897200      -2.84207300      -2.69442200      -3.08095236      -2.78667240      -2.49274499
Fe       1.33282000       7.09057000       5.22634000      -0.45239700      -1.35392500       0.92503500      -0.23215119      -1.50107767       0.82104895
Fe       2.06045000       7.92051000       0.98063000      -3.11321000      -0.30108300      -2.49280600      -3.22334672      -0.52954775      -2.33039202
Fe       2.03627000       8.24295000       3.50701000      -1.42216600       4.38122900       0.88517600      -1.53602664       4.18268657       0.56462551
Fe       0.01253000       8.02686000       7.00667000       2.58679700       0.98610200     -11.80201700       2.52653654       0.82869681     -11.90169998
Fe       3.00353000       0.57289000       6.13981000      -1.03922300       0.18357300       0.93137300      -0.69939528      -0.01227893       1.07403686
Fe       3.69949000       2.65196000       7.51811000       2.76433000      -4.34399200      -3.80269000       2.57073038      -4.14009248      -3.67448884
Fe       2.94478000       6.44154000       3.03987000       7.21319500      -3.66655800      -1.17614100       7.12497939      -3.39000416      -0.94870000
Fe       2.94309000       5.75189000       6.64956000      -6.24071800      -0.74678300       3.86021800      -6.54726916      -0.74767159       3.90676848
Fe       3.71160000       8.39321000       1.86324000       2.24845700      -0.43546600       0.28887200       2.37490930      -0.25562385       0.52374599
Fe       4.07810000       8.43915000       4.32840000       2.88035800       1.28304800      -0.49181300       2.91558284       1.48326146      -0.79700468
Fe       5.57499000       0.73262000       6.31633000      -3.12774100      -1.68249800      -0.98058200      -2.93914431      -1.72842411      -1.02450068
Fe       4.70712000       1.94493000       1.65492000      -2.04675700       4.97917500      -3.67899600      -2.12531676       4.84772893      -3.40805683
Fe       4.73401000       4.18392000       1.24748000       0.71501700       1.80608500      -0.06999200       0.70078631       1.98159427      -0.13509039
Fe       4.56687000       4.22266000       4.39618000       0.73801700       3.32591500      -2.10569900       0.57032694       3.46738162      -2.28009078
Fe       4.51224000       4.61167000       7.05684000       2.53211900      -0.41024200       0.53825400       2.96255539      -0.69569982       0.63025955
Fe       6.32808000       6.81945000       4.24288000      -3.20445400      -0.33519400      -1.28892300      -2.85145503      -0.29109525      -1.08230200
Fe       6.22240000       7.17309000       0.16230000      -3.30904600      -2.75215800       1.90373500      -3.54076300      -2.98301114       1.94997404
Fe       4.54224000       7.44382000       7.03838000       0.17895600      -5.02037800      -8.74618400       0.15354897      -5.31122601      -8.83759907
Fe       4.73272000       8.55832000       8.35561000      -0.10588400       8.96287400       6.54083400      -0.26121456       9.40991407       6.35368865
Fe       7.67285000       2.82429000       2.17742000      -2.12886900      -0.76272600      -2.06587500      -2.11607956      -0.70422154      -1.91444862
Fe       6.74071000       1.77406000       4.33655000       0.47479500       0.50025500      -0.42349800       0.11637333       0.52507348      -0.54149889
Fe       7.16362000       1.61896000       6.68131000       5.11373900       1.83737400       0.70818800       4.89892944       1.65113402       0.63550009
Fe       6.73653000       4.13840000       7.84564000       0.19062300       0.32905600       3.59274800       0.35949911       0.46813048       3.68585305
Fe       6.61248000       5.35948000       2.44590000       0.96755600      -0.77403900      -0.47053600       0.89200122      -0.75996486      -0.40720746
Fe       8.39074000       4.95678000       4.82580000       0.50677700       3.21370700       1.22596300       0.56368652       3.13912297       1.08415121
Fe       6.62275000       6.29700000       6.29237000       0.91106900      -0.58785400       1.74696000       0.84755128      -0.46867781       1.52413632
Fe       8.00875000       8.14674000       2.12563000      -1.25903800      -1.94608200      -3.37077000      -0.86502977      -1.94841007      -3.55053923
Fe       7.96861000       8.10559000       4.08816000       1.24434400       0.03207600       4.40361200       0.67394401      -0.03151359       4.62969578
B        3.14587000       1.61638000       2.59818000      -3.96044800      -1.57388800      -2.24367700      -4.11906805      -1.54374929      -2.21384875
B        4.07212000       1.93087000       3.78701000       0.55534200       0.12762300      -3.25123200       0.40765263      -0.00685590      -3.34975274
B        2.24412000       1.90783000       4.05913000      -1.80380000      -9.70850100      -5.48536600      -1.85630192      -9.89471280      -5.57818401
B        2.90130000       3.06657000       4.45062000       2.48509300       7.60479000      -1.50334300       2.79664940       7.12103986      -1.41367375
B        2.82587000       3.80138000       5.80651000       0.21675600       2.27927400       3.92227300       0.27362340       2.12740656       3.95509567
B        2.60929000       5.04297000       1.66311000       0.12617300      -0.77075900      -0.46531300      -0.03217767      -0.94597140      -0.46709850
B        2.47198000       4.95014000       4.32601000      -0.76752800      -1.31946700       0.35153300      -0.90063495      -1.16738393       0.36032828
B        2.73354000       7.81887000       7.66829000      -1.47869400      -0.15377200       0.00458000      -1.41662035      -0.13456547       0.10128037
B        5.68071000       2.28134000       7.79544000      -0.95924500       0.41857400       1.11780500      -1.05241119       0.37168375       1.11068842
B        7.77536000       3.70665000       3.76574000      -0.44877700      -1.48394500      -0.38974400      -0.48474311      -1.39111826      -0.18693324
Si       0.79518000       0.92195000       5.77957000      -1.66645900      -4.94136200      -1.10925300      -1.64502955      -5.06179889      -0.92043548
Si       0.88055000       4.20706000       6.73551000       1.15626000       3.58432200      -0.32349000       1.15011584       3.69178197      -0.29927984
Si       1.15025000       6.44729000       2.43826000      -7.77651300      -1.83655100      -1.54918700      -7.83767358      -1.67236998      -1.76039168
Si       2.82820000       3.29548000       0.50208000      -4.05499500       1.58525200       5.32597100      -4.11908758       1.38359280       5.18997105
Si       4.14031000       6.38272000       0.30005000      -2.16949800      -2.44928300       2.57761000      -2.30394995      -2.35453725       2.43894796
Si       3.68345000       6.43010000       5.01209000       3.98893100       0.98565200      -2.13453700       3.92249744       1.20149822      -2.04739620
Si       5.73751000       0.59059000       2.53265000       5.08228400      -4.90021500       2.23852200       5.17580371      -4.98220525       2.52110332
Si       4.51163000       2.47994000       5.36819000       2.60737700      -2.86786400       7.12589500       2.73917028      -2.57737498       7.30773003
Si       6.43436000       3.75222000       5.86206000       1.38008400       0.66155200      -3.64612400       1.48557608       0.66603153      -3.78051748
Si       8.06432000       7.52318000       8.55473000       2.36409700      -3.06603600      11.34847700       2.70412332      -2.74129214      11.33373157
18
Lattice="6.5 0.0 0.0 0.0 6.5 0.0 0.0 0.0 6.5" Properties=species:S:1:pos:R:3:REF_forces:R:3:MACE_forces:R:3 config_type=Fe12B3Si3 REF_energy=-113.87843945 MACE_energy=-112.44227175698796 pbc="T T T"
Fe       5.40234000       5.43492000       1.53729000      -1.39532100       2.04028400       0.71142300      -1.18964328       2.05508970       0.79408851
Fe       2.09750000       2.10361000       0.54730000       2.35673700      -0.33103000       1.27254800       2.69200154      -0.27292087       1.45552416
Fe       2.84360000       1.73250000       3.81271000       2.28004000      -1.18251600      -0.27344700       2.23639273      -1.05554875      -0.34325703
Fe       0.77541000       4.93717000       1.04317000       1.56096300      -3.83372900       1.76362000       1.54841185      -3.66327684       1.57517897
Fe       0.07665000       3.70431000       3.74351000      -0.75952900      -0.39175400      -2.23189700      -0.89473245      -0.47421311      -2.33578391
Fe       4.77171000       3.58949000       4.78220000      -1.99219600      -4.62409700       0.48420500      -1.78195387      -4.55271780       0.42760539
Fe       4.12430000       1.49867000       1.46476000       0.29771700      -2.38794700       0.28396300       0.34307060      -2.69765378       0.16252300
Fe       0.95387000       5.17746000       5.28728000      -0.57085000      -0.50160400      -1.80733600      -0.83418243      -0.69661016      -1.38071378
Fe       1.93602000       3.09888000       2.36598000      -0.08855100       0.43128300      -0.27209000      -0.23286140       0.56415483      -0.37070662
Fe       5.69037000       1.28357000       4.20026000      -0.40866000      -0.49067900       0.18976600      -0.71069926      -0.35543316       0.25147994
Fe       1.94321000       2.86141000       5.39871000      -0.55906500       0.73218900      -1.80086600      -0.67116982       1.09824061      -2.22796675
Fe       4.33122000       5.38124000       5.25469000      -0.73272900       4.56545400       1.52017900      -0.64012972       4.48896963       1.58751270
B        0.37598000       1.64060000       1.21420000      -3.21263000       2.85095800       0.76078000      -3.18579471       2.78832245       0.99927963
B        1.88110000       4.04794000       3.96741000       2.48956600       2.45119300      -0.32261600       2.53960260       2.27978380      -0.30315417
B        3.63878000       0.94242000       5.41981000      -0.01444500       0.67937600       0.95779200       0.04713626       0.77041008       1.08031880
Si       1.19380000       0.26963000       0.19686000       0.54051800       0.24528300      -1.93219100       0.62433596       0.00286383      -1.90182820
Si       4.57825000       3.47658000       1.16117000       0.15934200       1.26766700      -0.81102600       0.20950667       1.36453723      -0.75719533
Si       1.09558000       0.76720000       2.75124000       0.04909300      -1.52033200       1.50719200      -0.09929129      -1.64399766       1.28709471
54
Lattice="8.579999685 0.0 0.0 0.0 8.579999685 0.0 0.0 0.0 8.5799996" Properties=species:S:1:pos:R:3:REF_forces:R:3:MACE_forces:R:3 config_type=Fe34B10Si10 REF_energy=-356.0869274 MACE_energy=-357.02066108643305 pbc="T T T"
Fe       0.92877000       1.08311000       2.12831000      -0.53214900      -1.15432400       0.53007800      -0.62575551      -1.16739874       0.44540539
Fe       1.12794000       0.45096000       7.37327000      -2.86345100       2.18226700       1.45805300      -2.72037014       2.03824868       1.41472841
Fe       0.91289000       3.61082000       1.96264000      -1.66570100       0.50807500      -4.76654600      -1.58286553       0.14738509      -4.48574702
Fe       0.97242000       3.25012000       3.83975000      -0.85629000      -1.23507100      -0.91491200      -1.09519708      -1.07285250      -0.62173679
Fe       1.43574000       3.84332000       5.84621000      -1.94378300      -0.72872400       4.94145300      -2.05369353      -0.54503340       4.73438225
Fe       0.45897000       5.99881000       1.32384000       1.86679900       1.45939200      -0.33976700       1.67067338       1.46184515      -0.16215787
Fe       0.05714000       6.25044000       6.01250000       0.66851500      -0.88142700       1.67028200       0.62077968      -0.74794982       1.70847522
Fe       1.87526000       7.05991000       7.27744000      -5.90957000       6.81146600       5.95768600      -5.63009825       6.99121953       5.75711715
Fe       4.21220000       0.80536000       3.81626000       0.44958900      -1.97725700       0.54591300       0.52286584      -1.80035379       0.44643220
Fe       2.64196000       0.75311000       5.88605000       0.80305000      -0.92688600      -1.50973400       0.50124367      -1.07119584      -1.49015887
Fe       2.51735000       4.27963000       7.86001000      -0.17185400       2.88247300       0.00075600      -0.18250669       3.04367271       0.04480590
Fe       2.46175000       4.76211000       4.38544000       2.27245000       6.36429500      -0.60000700       2.31495341       6.35918406      -0.49654504
Fe       3.99132000       4.46692000       6.09268000      -0.21521200      -1.96607600      -0.25853400      -0.32254982      -2.19221991      -0.16448255
Fe       4.03283000       6.20484000       2.50717000       0.32509400      -1.83048700       1.07686200       0.37968684      -1.76044799       1.09228674
Fe       2.62183000       8.12097000       1.25125000      -5.45108600      -1.04608100      -0.88869000      -5.56849649      -1.10027503      -0.65635710
Fe       2.34208000       7.49949000       3.33705000      -1.45221900       0.10179900       1.96325000      -1.29341651       0.10874728       1.58348986
Fe       4.67554000       0.98699000       8.35162000       1.97529500       0.95938300       0.07305200       1.71857724       0.87306470       0.34232204
Fe       4.68615000       2.28426000       1.60336000       6.03713100       4.39249100       1.56082500       6.15417653       4.36440832       1.11656758
Fe       4.95897000       4.28949000       0.91503000       1.24258400       3.77490300      -1.07876200       0.80059626       3.54944449      -1.16803694
Fe       5.62605000       3.84953000       3.25301000      -4.56775200       3.43217100       2.09526400      -4.69589162       3.44429015       1.92242541
Fe       5.63153000       5.70233000       4.67966000       0.04558900       0.36352900      -0.74034800       0.11065663      -0.04638993      -0.58670423
Fe       5.00954000       6.14620000       6.89198000       4.51113600      -2.60361300       1.43664400       4.55156851      -2.53773859       1.29060285
Fe       5.34723000       7.32984000       0.56425000       3.41130600      -7.55812200      -7.44238600       3.25161387      -7.11982298      -7.12795518
Fe       4.57141000       8.20633000       1.67615000      -2.51651100       6.57056000       9.11650700      -2.38118061       6.15045922       8.82225536
Fe       5.67084000       7.83697000       6.02451000      -0.02983000       3.57151200       0.33120700      -0.04588872       3.66923872       0.45537528
Fe       7.65837000       1.05332000       0.64336000       1.95813700       2.93603900      -3.62028800       1.81679922       2.80689780      -3.42975947
Fe       7.23579000       1.49494000       3.62009000       0.88838800      -1.50203300       3.00240400       1.06159364      -1.48297574       2.99238143
Fe       6.96409000       1.59543000       6.70415000       0.40175100      -2.57633900      -0.54943900       0.44041945      -2.40511463      -0.47016830
Fe       6.97946000       3.05325000       2.27831000       3.01329100      -2.85779700      -7.80747400       2.64339560      -2.88585260      -7.38930125
Fe       7.05854000       3.62734000       7.13255000       0.94483300       2.42104600       2.56329500       1.00465144       2.29660126       2.36497125
Fe       7.47490000       4.49325000       0.92243000      -3.13561000       0.06366500       0.11142200      -2.81626795       0.40133612      -0.13363089
Fe       7.76499000       5.40883000       4.05655000       3.42051700      -2.49950500       1.10150300       3.59197852      -2.65635848       1.12958050
Fe       6.91686000       6.16423000       2.38917000      -4.34160700       0.52717700      -3.24358900      -4.35524791       0.84552706      -3.24725053
Fe       7.31773000       7.39473000       4.73130000      -1.41907300       3.06948200       1.38572900      -1.44833993       2.97829048       1.33050163
B        1.63947000       5.44017000       2.85377000      -1.37965300       1.67099600      -0.34434500      -1.43931238       1.74887681      -0.54615303
B        3.47444000       1.29905000       1.69513000      -6.04542900      -7.46227000      -1.52467000      -6.09532722      -6.97079404      -1.29371966
B        2.31673000       1.42955000       3.77944000      -1.85652800      -2.14982900       3.21956500      -1.83182111      -1.96169196       3.32629771
B        3.17088000       0.01260000       8.16689000      -2.14308300      -0.12737100      -3.63430700      -2.08901455       0.12773880      -3.46593252
B        2.48887000       2.23189000       2.44876000      -1.30373000       3.96631200      -0.94871100      -0.89796799       3.71413048      -1.24328147
B        3.55016000       3.21990000       0.17024000       2.13469500      -3.52588700       0.23974700       2.14138571      -3.57041311       0.38213845
B        3.12966000       3.07291000       4.24572000      -6.99085300       0.34377600      -0.16579100      -6.86881694       0.08636791      -0.17966482
B        2.38358000       5.95301000       6.34325000       2.25901800      -8.76611800      -6.31465800       2.11091067      -9.04057830      -6.39058823
B        4.46260000       2.62992000       4.23823000       7.08507900      -1.75449200       0.40993300       6.98101912      -1.83541000       0.34421561
B        7.51183000       3.59374000       3.85724000       1.49621300      -1.20378300       3.39561400       1.50272791      -1.01055106       3.22111035
Si       0.50050000       1.66927000       5.10425000      -1.02554400      -2.67263500       2.61432900      -0.78330094      -2.97854402       2.56638099
Si       0.41923000       4.50138000       8.15701000       0.82744200      -0.47721100      -2.57541600       1.09653392      -0.44203471      -2.75257713
Si       2.90131000       4.25049000       1.93860000       2.71957100       0.04497600      -0.88170100       2.70210814      -0.00854241      -1.03026622
Si       3.74353000       6.85388000       5.19884000      -1.20766000       1.80214700      -2.20114300      -1.07542456       1.92617194      -2.08674012
Si       3.54209000       6.47938000       8.21357000      -0.45014500      -1.75854100       4.24377300      -0.58769238      -2.01711913       4.42213355
Si       4.55252000       1.74669000       6.40118000       0.28733400       0.20348600      -1.69136000       0.27011563       0.20305400      -1.63694658
Si       5.87020000       3.30923000       5.41310000       1.93974000       0.55942400      -1.14043100       1.68307299       0.84172821      -1.21454925
Si       6.68392000       0.09389000       2.07850000      -2.78148600      -1.30329400       2.70552900      -2.57822470      -1.24500640       2.84958156
Si       7.30980000       7.36953000       0.08595000       4.18267400      -0.22507900      -1.67891000       4.39200693      -0.38682748      -1.74900670
Si       8.41387000       7.50606000       2.97540000       5.08859000       1.78741200      -0.88875800       5.02855831       1.88156363      -0.88654693
54
Lattice="8.579999685 0.0 0.0 0.0 8.579999685 0.0 0.0 0.0 8.5799996" Properties=species:S:1:pos:R:3:REF_forces:R:3:MACE_forces:R:3 config_type=Fe34B10Si10 REF_energy=-359.84864784 MACE_energy=-360.3893343538264 pbc="T T T"
Fe       0.39531000       2.37288000       0.87042000       3.27925500       2.43832800      -1.60261100       3.17047109       2.62903740      -1.71774300
Fe       0.75383000       1.65209000       3.11094000       1.30783500      -0.34615400      -0.09267000       1.35368112      -0.73093777       0.04589535
Fe       1.33201000       3.79282000       7.26231000      -2.40668100      -1.18131200       0.32245500      -2.50380469      -1.16528580       0.17998756
Fe       0.64436000       4.41396000       2.97573000       2.42004200      -2.26182600       0.38963900       2.44732844      -2.05823348       0.22225742
Fe       0.14751000       6.42079000       3.51005000      -3.07002100       1.32407200      -2.30638400      -3.15887855       1.33428127      -2.48567255