54
Lattice="8.579999685 0.0 0.0 0.0 8.579999685 0.0 0.0 0.0 8.5799996" Properties=species:S:1:pos:R:3:REF_forces:R:3:MACE_forces:R:3 config_type=Fe34B10Si10 REF_energy=-352.89092233 MACE_energy=-353.28564834179815 pbc="T T T"
Fe       1.46495000       0.71583000       1.12880000       3.73230100      -3.41607500      -3.76209700       3.66042409      -3.43651633      -3.52934026
Fe       0.56244000       2.07917000       1.96452000      -3.31290700       4.06628900       2.54508600      -3.34525976       4.05977464       2.34661894
Fe       0.86636000       2.12990000       5.00906000     -10.85567700      -2.87102900      12.20968700     -10.87863585      -2.94462805      12.20644695
Fe       0.24697000       2.61233000       7.83061000      -0.37811800      -2.03816900      -0.08744800      -0.37367290      -2.05923384       0.08900318
Fe       0.35437000       4.66395000       8.16447000      -1.30300600       1.62250000       0.84662400      -1.35955509       1.76962733       0.78157670
Fe       0.83543000       8.00840000       3.01492000       5.54921000      -2.55787300       0.52513800       5.60409554      -2.63981660       0.46819819
Fe       2.03952000       7.84431000       6.63062000      -4.28706100       1.82495200      -1.68802900      -4.07723208       2.03302183      -1.72088774
Fe       3.34318000       0.11090000       2.96052000      -0.46571400      -0.35056300       0.37864800      -0.49702770      -0.16919042       0.45448704
Fe       3.26317000       2.11539000       1.48699000      -3.47884800      -0.03222100       0.61542300      -3.30196874      -0.25598685       0.25410831
Fe       4.14313000       2.75755000       3.31065000      -0.71378000      -2.73118300       1.93004800      -0.70006327      -2.44302832       1.88074687
Fe       2.55051000       2.67374000       7.19710000      -2.55215900      -0.93589000       1.77261600      -2.26465749      -1.02798452       1.69546037
Fe       3.61327000       2.86500000       5.46497000       1.55763200       0.20514300      -0.56676300       1.45830123       0.29560841      -0.28834401
Fe       2.62400000       4.72550000       1.39174000      -1.08585200      -1.19598700       0.59645400      -1.33506603      -0.97310892       0.67754513
Fe       2.20317000       5.21693000       3.87451000      -3.92870900      -4.38103900      -4.92199500      -3.91284151      -4.32782179      -5.06526807
Fe       3.93082000       4.37819000       8.08226000       1.07616800       0.44807800      -0.99700400       0.95541813       0.23797484      -1.00608060
Fe       2.44961000       7.01753000       1.08943000       0.32119000      -1.55635000       3.27006500       0.44154315      -1.60124485       3.35005272
Fe       3.02500000       6.15780000       5.08193000      -1.08486800       1.64126100       3.95415400      -0.33304459       1.71248970       4.03675157
Fe       5.77712000       0.44616000       0.16142000      -2.43333700       0.07175000       4.13474700      -2.42063898       0.41616635       4.17595778
Fe       5.66964000       0.14892000       2.95259000      -3.67617900       1.90971100       0.12919700      -3.69292216       1.66059680       0.31210982
Fe       5.39484000       2.66317000       1.55162000       4.08183700      -3.39937100       3.88213200       3.98724486      -3.76683871       4.14692184
Fe       5.91309000       3.40423000       8.31953000       8.90196200       5.48305700      -2.72562400       8.73198847       5.40528471      -2.75796751
Fe       4.96126000       4.63305000       3.41410000      -3.60269200      -2.00302700       2.25051900      -3.89043329      -2.35461318       2.39271119
Fe       5.11347000       6.81217000       1.78872000      -0.87770500       0.06714300      -1.61156800      -0.72814821       0.12795243      -1.64921619
Fe       5.00950000       6.45991000       8.24507000      -2.30619500      -0.19808200      -1.52355700      -2.20861278      -0.02751650      -1.75519863
Fe       4.64263000       7.71190000       5.75084000       2.50156800       4.23919200      -1.55456800       2.55840048       4.27987776      -1.60312072
Fe       7.32285000       0.33022000       5.03535000      -0.99210900      -0.59745100       4.73628300      -0.96709250      -0.35433264       4.69908148
Fe       6.75330000       1.32958000       7.05071000       0.53851300       2.01290400       0.36400700       0.48792451       1.86882361       0.32310437
Fe       6.82686000       2.53028000       3.66692000      -0.08907100      -0.12987400      -0.26318300       0.03619709      -0.19341583      -0.20706232
Fe       6.83617000       5.56618000       0.59386000       1.74434500       1.47371700      -3.32847200       1.78539108       1.75599431      -3.48701322
Fe       8.27091000       4.29855000       2.87718000       3.23308900       0.33980500       1.37352500       3.08796465       0.18259799       1.32490436
Fe       6.58774000       4.90718000       4.97515000      -1.87594500       0.58060600      -0.05143700      -2.07489172       0.59198721      -0.50432063
Fe       6.86773000       6.79187000       3.27473000       1.52763600      -2.76254700       0.67579100       1.47134908      -2.44774467       0.36489532
Fe       8.09083000       8.29691000       0.84396000      -4.18921500      -1.95965200       9.56442300      -4.19417259      -2.23944312       9.63965834
Fe       6.62133000       7.67903000       7.47205000      -3.65417600       1.51975600      -3.32990400      -3.98086368       1.30110771      -3.46966830
B        3.45077000       6.81738000       6.75435000       2.04131500      -2.79808300       3.80923700       1.96607597      -2.87613560       3.91359895
B        4.67436000       1.10514000       4.73414000       0.75036200       0.95391600      -0.52852700       0.79574798       0.94982212      -0.42577980
B        6.18153000       2.20088000       5.47737000      -4.49435700      -3.20609500      -2.27763700      -4.63224308      -3.15738540      -2.46161850
B        5.08133000       4.10197000       6.35983000       0.35152900       0.25548900      -0.65354500       0.48887706       0.28257117      -0.56854052
B        4.48663000       4.29393000       1.40792000      -0.27448100       1.04603100       0.21283300      -0.23582483       1.22881800       0.22396875
B        4.96286000       5.88068000       6.14703000       0.60492000      -1.85032800       0.29314600       0.46485433      -1.85386073       0.12582913
B        8.17242000       5.65216000       5.55863000       1.00443800       0.65677900      -0.69824300       1.06753332       0.70769120      -0.23005149
B        7.98743000       6.92663000       6.60530000       5.86774900       2.58695800      -4.05103700       5.77086397       2.29726826      -3.55393804
B        7.10769000       5.72812000       6.91109000      -2.33709700      -3.34606800       1.34633400      -2.12837147      -3.42279521       1.50476576
B        7.81665000       6.81498000       8.33858000       5.04350100      -2.41043400       0.97359300       4.99572095      -2.58555235       0.50140791
Si       0.06983000       0.14925000       7.74742000       4.12649000       2.60901100      -8.87608100       3.97026080       2.58115771      -8.80990754
Si       1.93337000       2.41223000       3.74634000      10.14534600       2.98113100     -12.18526000      10.21918922       3.04742217     -12.01419454
Si       0.75978000       6.02813000       1.69309000      -4.13401100      -0.74920300       1.02787300      -4.13318864      -0.87067003       0.96190345
Si       2.22023000       5.10313000       7.16329000      -1.58663400       1.19675500      -1.89967800      -1.66605139       1.16755051      -1.84391732
Si       3.27754000       8.17117000       8.35443000       4.04667900       4.58101600      -2.24829100       3.91389915       4.51689716      -2.37281499
Si       4.48145000       2.18337000       8.34202000      -5.72220500      -5.96162700      -4.99603400      -5.45416121      -5.90439610      -5.15578771
Si       6.36439000       4.54151000       2.12641000       2.28764700      -2.33178900       1.39384200       2.57229535      -2.14550073       1.25614197
Si       4.52267000       6.51460000       3.75633000       0.42177200       5.22743800       1.25328700       0.12388382       5.31300298       1.34559057
Si       7.68278000       0.22257000       3.11016000      -0.17295300       4.89916800      -3.86478000      -0.23005086       4.85814052      -3.93155778
Si       7.35363000       3.38410000       6.13231000       4.40786200       1.27045000       2.62604800       4.40124817       1.42953388       2.95804946
54
Lattice="8.579999685 0.0 0.0 0.0 8.579999685 0.0 0.0 0.0 8.5799996" Properties=species:S:1:pos:R:3:REF_forces:R:3:MACE_forces:R:3 config_type=Fe34B10Si10 REF_energy=-354.71875992 MACE_energy=-355.3852573410212 pbc="T T T"
Fe       0.43313000       1.19321000       2.96848000       1.47291300       2.99028000       0.61180900       1.46114539       2.89378088       0.37999621
Fe       0.91365000       1.12516000       8.09995000       2.76260400      -2.00335600       1.20968300       2.38479961      -1.84286474       1.07988548
Fe       1.17142000       2.67870000       5.23446000      -1.90323000       6.04651700       0.58026800      -1.68807781       6.13885899       0.36756511
Fe       0.60772000       3.85484000       0.87278000       2.66909500       4.89444800       4.53699300       2.64745469       5.10070789       4.12533954
Fe       1.41565000       3.44858000       3.01161000      -0.29549500       2.03729500      -0.74017400       0.00384033       1.92705762      -0.66386521
Fe       0.04226000       2.91249000       8.09734000      -3.39897200      -2.84207300      -2.69442200      -2.77865947      -3.00873647      -2.44725721
Fe       1.33282000       7.09057000       5.22634000      -0.45239700      -1.35392500       0.92503500      -0.23345125      -1.47290693       0.94788099
Fe       2.06045000       7.92051000       0.98063000      -3.11321000      -0.30108300      -2.49280600      -3.27720407      -0.43410192      -2.48770572
Fe       2.03627000       8.24295000       3.50701000      -1.42216600       4.38122900       0.88517600      -1.52480889       4.10429639       0.63297462
Fe       0.01253000       8.02686000       7.00667000       2.58679700       0.98610200     -11.80201700       2.47021291       0.87742599     -11.95541024
Fe       3.00353000       0.57289000       6.13981000      -1.03922300       0.18357300       0.93137300      -0.77462200       0.14568940       0.98579463
Fe       3.69949000       2.65196000       7.51811000       2.76433000      -4.34399200      -3.80269000       2.60603317      -4.12772609      -3.67885636
Fe       2.94478000       6.44154000       3.03987000       7.21319500      -3.66655800      -1.17614100       6.99038190      -3.45945118      -0.98860897
Fe       2.94309000       5.75189000       6.64956000      -6.24071800      -0.74678300       3.86021800      -6.43136947      -0.64180520       4.00536134
Fe       3.71160000       8.39321000       1.86324000       2.24845700      -0.43546600       0.28887200       2.35903712      -0.08878577       0.68089569
Fe       4.07810000       8.43915000       4.32840000       2.88035800       1.28304800      -0.49181300       2.84945567       1.31379006      -0.78471881
Fe       5.57499000       0.73262000       6.31633000      -3.12774100      -1.68249800      -0.98058200      -2.78501275      -1.73474077      -0.92452490
Fe       4.70712000       1.94493000       1.65492000      -2.04675700       4.97917500      -3.67899600      -2.12811609       4.78427954      -3.42450112
Fe       4.73401000       4.18392000       1.24748000       0.71501700       1.80608500      -0.06999200       0.71420077       1.97252429      -0.13045100
Fe       4.56687000       4.22266000       4.39618000       0.73801700       3.32591500      -2.10569900       0.51280812       3.16587922      -2.14455537
Fe       4.51224000       4.61167000       7.05684000       2.53211900      -0.41024200       0.53825400       2.96169082      -0.73136773       0.48402716
Fe       6.32808000       6.81945000       4.24288000      -3.20445400      -0.33519400      -1.28892300      -2.80729838      -0.23452477      -1.07153329
Fe       6.22240000       7.17309000       0.16230000      -3.30904600      -2.75215800       1.90373500      -3.49587164      -2.96203648       2.03650489
Fe       4.54224000       7.44382000       7.03838000       0.17895600      -5.02037800      -8.74618400       0.31151590      -5.28660439      -8.86959951
Fe       4.73272000       8.55832000       8.35561000      -0.10588400       8.96287400       6.54083400      -0.32593116       9.34444978       6.19411182
Fe       7.67285000       2.82429000       2.17742000      -2.12886900      -0.76272600      -2.06587500      -2.12804073      -0.82537918      -1.97699268
Fe       6.74071000       1.77406000       4.33655000       0.47479500       0.50025500      -0.42349800       0.07691197       0.40764005      -0.44873152
Fe       7.16362000       1.61896000       6.68131000       5.11373900       1.83737400       0.70818800       4.69595875       1.62007380       0.63211722
Fe       6.73653000       4.13840000       7.84564000       0.19062300       0.32905600       3.59274800       0.17307446       0.47009500       3.60991209
Fe       6.61248000       5.35948000       2.44590000       0.96755600      -0.77403900      -0.47053600       0.85395361      -0.66699643      -0.44492594
Fe       8.39074000       4.95678000       4.82580000       0.50677700       3.21370700       1.22596300       0.58238348       3.14658346       1.08396811
Fe       6.62275000       6.29700000       6.29237000       0.91106900      -0.58785400       1.74696000       0.82856752      -0.48848257       1.60519501
Fe       8.00875000       8.14674000       2.12563000      -1.25903800      -1.94608200      -3.37077000      -0.86123783      -1.91357073      -3.43290051
Fe       7.96861000       8.10559000       4.08816000       1.24434400       0.03207600       4.40361200       0.72540241       0.04962420       4.57008132
B        3.14587000       1.61638000       2.59818000      -3.96044800      -1.57388800      -2.24367700      -3.98837923      -1.48766089      -2.02295399
B        4.07212000       1.93087000       3.78701000       0.55534200       0.12762300      -3.25123200       0.38661624       0.16879546      -3.21506428
B        2.24412000       1.90783000       4.05913000      -1.80380000      -9.70850100      -5.48536600      -1.87993950     -10.02934050      -5.62990815
B        2.90130000       3.06657000       4.45062000       2.48509300       7.60479000      -1.50334300       2.83984901       7.25145944      -1.50895887
B        2.82587000       3.80138000       5.80651000       0.21675600       2.27927400       3.92227300       0.27294668       2.17438230       3.92894711
B        2.60929000       5.04297000       1.66311000       0.12617300      -0.77075900      -0.46531300      -0.02840859      -0.82595340      -0.45353577
B        2.47198000       4.95014000       4.32601000      -0.76752800      -1.31946700       0.35153300      -0.80355908      -1.21842917       0.42265460
B        2.73354000       7.81887000       7.66829000      -1.47869400      -0.15377200       0.00458000      -1.53094292      -0.16977823       0.22174255
B        5.68071000       2.28134000       7.79544000      -0.95924500       0.41857400       1.11780500      -0.96792312       0.38395620       1.07441450
B        7.77536000       3.70665000       3.76574000      -0.44877700      -1.48394500      -0.38974400      -0.54231721      -1.40953302      -0.07945854
Si       0.79518000       0.92195000       5.77957000      -1.66645900      -4.94136200      -1.10925300      -1.61818469      -5.01235518      -0.96233817
Si       0.88055000       4.20706000       6.73551000       1.15626000       3.58432200      -0.32349000       1.11299487       3.68853913      -0.22745857
Si       1.15025000       6.44729000       2.43826000      -7.77651300      -1.83655100      -1.54918700      -7.81875563      -1.71503464      -1.70351300
Si       2.82820000       3.29548000       0.50208000      -4.05499500       1.58525200       5.32597100      -4.06693511       1.40103256       5.24482623
Si       4.14031000       6.38272000       0.30005000      -2.16949800      -2.44928300       2.57761000      -2.30859310      -2.40191141       2.47245198
Si       3.68345000       6.43010000       5.01209000       3.98893100       0.98565200      -2.13453700       3.85841996       1.16640178      -2.15885148
Si       5.73751000       0.59059000       2.53265000       5.08228400      -4.90021500       2.23852200       5.10320337      -4.85939154       2.49949688
Si       4.51163000       2.47994000       5.36819000       2.60737700      -2.86786400       7.12589500       2.79786576      -2.59930951       7.08341672
Si       6.43436000       3.75222000       5.86206000       1.38008400       0.66155200      -3.64612400       1.50374046       0.72563718      -3.74406466
Si       8.06432000       7.52318000       8.55473000       2.36409700      -3.06603600      11.34847700       2.70917479      -2.77418177      11.21168203
18
Lattice="6.5 0.0 0.0 0.0 6.5 0.0 0.0 0.0 6.5" Properties=species:S:1:pos:R:3:REF_forces:R:3:MACE_forces:R:3 config_type=Fe12B3Si3 REF_energy=-113.87843945 MACE_energy=-113.07335538426693 pbc="T T T"
Fe       5.40234000       5.43492000       1.53729000      -1.39532100       2.04028400       0.71142300      -1.01079554       1.83400590       0.69862671
Fe       2.09750000       2.10361000       0.54730000       2.35673700      -0.33103000       1.27254800       2.55065794      -0.10293139       1.33174990
Fe       2.84360000       1.73250000       3.81271000       2.28004000      -1.18251600      -0.27344700       2.22812643      -0.98513640      -0.21092111
Fe       0.77541000       4.93717000       1.04317000       1.56096300      -3.83372900       1.76362000       1.24167872      -3.39388793       1.58737756
Fe       0.07665000       3.70431000       3.74351000      -0.75952900      -0.39175400      -2.23189700      -1.19074887      -0.48021910      -2.25800342
Fe       4.77171000       3.58949000       4.78220000      -1.99219600      -4.62409700       0.48420500      -1.64015890      -4.51414346       0.38049437
Fe       4.12430000       1.49867000       1.46476000       0.29771700      -2.38794700       0.28396300       0.26802151      -2.66182737       0.10800119
Fe       0.95387000       5.17746000       5.28728000      -0.57085000      -0.50160400      -1.80733600      -0.93742652      -0.67101716      -1.36338750
Fe       1.93602000       3.09888000       2.36598000      -0.08855100       0.43128300      -0.27209000      -0.22038586       0.48787016      -0.61174978
Fe       5.69037000       1.28357000       4.20026000      -0.40866000      -0.49067900       0.18976600      -0.83026603      -0.31491832       0.23619568
Fe       1.94321000       2.86141000       5.39871000      -0.55906500       0.73218900      -1.80086600      -0.46643848       0.67769212      -1.93942676
Fe       4.33122000       5.38124000       5.25469000      -0.73272900       4.56545400       1.52017900      -0.55815011       4.35331517       1.55979331
B        0.37598000       1.64060000       1.21420000      -3.21263000       2.85095800       0.76078000      -2.99687323       2.70617973       0.83699380
B        1.88110000       4.04794000       3.96741000       2.48956600       2.45119300      -0.32261600       2.67034552       2.42162220      -0.27706996
B        3.63878000       0.94242000       5.41981000      -0.01444500       0.67937600       0.95779200       0.12873805       0.81393373       1.09943914
Si       1.19380000       0.26963000       0.19686000       0.54051800       0.24528300      -1.93219100       0.63626479      -0.00312443      -1.83943770
Si       4.57825000       3.47658000       1.16117000       0.15934200       1.26766700      -0.81102600       0.18447030       1.50157695      -0.79325865
Si       1.09558000       0.76720000       2.75124000       0.04909300      -1.52033200       1.50719200      -0.05705973      -1.66899041       1.45458322
54
Lattice="8.579999685 0.0 0.0 0.0 8.579999685 0.0 0.0 0.0 8.5799996" Properties=species:S:1:pos:R:3:REF_forces:R:3:MACE_forces:R:3 config_type=Fe34B10Si10 REF_energy=-356.0869274 MACE_energy=-356.95690611417444 pbc="T T T"
Fe       0.92877000       1.08311000       2.12831000      -0.53214900      -1.15432400       0.53007800      -0.71957577      -1.19387760       0.40086954
Fe       1.12794000       0.45096000       7.37327000      -2.86345100       2.18226700       1.45805300      -2.82778782       1.97294983       1.44219863
Fe       0.91289000       3.61082000       1.96264000      -1.66570100       0.50807500      -4.76654600      -1.71215237       0.36939262      -4.80404475
Fe       0.97242000       3.25012000       3.83975000      -0.85629000      -1.23507100      -0.91491200      -1.09078187      -1.23998273      -0.18216489
Fe       1.43574000       3.84332000       5.84621000      -1.94378300      -0.72872400       4.94145300      -2.07832230      -0.62557131       4.71283723
Fe       0.45897000       5.99881000       1.32384000       1.86679900       1.45939200      -0.33976700       1.63587287       1.52807198      -0.16920767
Fe       0.05714000       6.25044000       6.01250000       0.66851500      -0.88142700       1.67028200       0.69726242      -0.77076162       1.71809952
Fe       1.87526000       7.05991000       7.27744000      -5.90957000       6.81146600       5.95768600      -5.74823280       7.22677649       5.99197975
Fe       4.21220000       0.80536000       3.81626000       0.44958900      -1.97725700       0.54591300       0.48704026      -1.89445314       0.42858041
Fe       2.64196000       0.75311000       5.88605000       0.80305000      -0.92688600      -1.50973400       0.51804597      -1.03810042      -1.56150607
Fe       2.51735000       4.27963000       7.86001000      -0.17185400       2.88247300       0.00075600      -0.00163307       2.94768578       0.17729067
Fe       2.46175000       4.76211000       4.38544000       2.27245000       6.36429500      -0.60000700       2.18465683       6.34912784      -0.70855182
Fe       3.99132000       4.46692000       6.09268000      -0.21521200      -1.96607600      -0.25853400      -0.17170709      -2.26587971      -0.20196779
Fe       4.03283000       6.20484000       2.50717000       0.32509400      -1.83048700       1.07686200       0.41606673      -1.76614116       1.07825506
Fe       2.62183000       8.12097000       1.25125000      -5.45108600      -1.04608100      -0.88869000      -5.51047171      -1.12689681      -0.64793829
Fe       2.34208000       7.49949000       3.33705000      -1.45221900       0.10179900       1.96325000      -1.25459800       0.18076609       1.64084410
Fe       4.67554000       0.98699000       8.35162000       1.97529500       0.95938300       0.07305200       1.65995661       0.85803581       0.31760142
Fe       4.68615000       2.28426000       1.60336000       6.03713100       4.39249100       1.56082500       6.24823095       4.32515998       1.15827443
Fe       4.95897000       4.28949000       0.91503000       1.24258400       3.77490300      -1.07876200       0.80272782       3.56595570      -1.24673496
Fe       5.62605000       3.84953000       3.25301000      -4.56775200       3.43217100       2.09526400      -4.54092399       3.55334660       1.89995741
Fe       5.63153000       5.70233000       4.67966000       0.04558900       0.36352900      -0.74034800       0.01456104      -0.04958442      -0.59597628
Fe       5.00954000       6.14620000       6.89198000       4.51113600      -2.60361300       1.43664400       4.57837209      -2.37881425       1.43879313
Fe       5.34723000       7.32984000       0.56425000       3.41130600      -7.55812200      -7.44238600       3.47550142      -7.02708425      -7.24221998
Fe       4.57141000       8.20633000       1.67615000      -2.51651100       6.57056000       9.11650700      -2.68895234       6.06288073       8.70251815
Fe       5.67084000       7.83697000       6.02451000      -0.02983000       3.57151200       0.33120700      -0.04801323       3.61985114       0.34227914
Fe       7.65837000       1.05332000       0.64336000       1.95813700       2.93603900      -3.62028800       1.88665831       2.92743302      -3.55246735
Fe       7.23579000       1.49494000       3.62009000       0.88838800      -1.50203300       3.00240400       0.94721724      -1.50015430       3.08023252
Fe       6.96409000       1.59543000       6.70415000       0.40175100      -2.57633900      -0.54943900       0.52179608      -2.54550896      -0.57329576
Fe       6.97946000       3.05325000       2.27831000       3.01329100      -2.85779700      -7.80747400       2.46510086      -2.95203953      -7.27613258
Fe       7.05854000       3.62734000       7.13255000       0.94483300       2.42104600       2.56329500       1.03753206       2.48449036       2.50331296
Fe       7.47490000       4.49325000       0.92243000      -3.13561000       0.06366500       0.11142200      -2.89167440       0.47317939      -0.19651734
Fe       7.76499000       5.40883000       4.05655000       3.42051700      -2.49950500       1.10150300       3.49290717      -2.65423653       1.11693425
Fe       6.91686000       6.16423000       2.38917000      -4.34160700       0.52717700      -3.24358900      -4.32056550       0.58586441      -3.20589691
Fe       7.31773000       7.39473000       4.73130000      -1.41907300       3.06948200       1.38572900      -1.47429128       3.00768764       1.40022680
B        1.63947000       5.44017000       2.85377000      -1.37965300       1.67099600      -0.34434500      -1.51555198       1.78145038      -0.59020310
B        3.47444000       1.29905000       1.69513000      -6.04542900      -7.46227000      -1.52467000      -5.89489427      -7.15718210      -1.11054822
B        2.31673000       1.42955000       3.77944000      -1.85652800      -2.14982900       3.21956500      -1.70538524      -1.98969849       3.43796569
B        3.17088000       0.01260000       8.16689000      -2.14308300      -0.12737100      -3.63430700      -1.98959158       0.11499045      -3.57761561
B        2.48887000       2.23189000       2.44876000      -1.30373000       3.96631200      -0.94871100      -0.89890563       3.83079714      -1.29405854
B        3.55016000       3.21990000       0.17024000       2.13469500      -3.52588700       0.23974700       2.14706302      -3.43087304       0.30646027
B        3.12966000       3.07291000       4.24572000      -6.99085300       0.34377600      -0.16579100      -7.10726314       0.14212919      -0.17536955
B        2.38358000       5.95301000       6.34325000       2.25901800      -8.76611800      -6.31465800       2.16564964      -9.24158593      -6.58548691
B        4.46260000       2.62992000       4.23823000       7.08507900      -1.75449200       0.40993300       7.18876722      -1.85885036       0.45555673
B        7.51183000       3.59374000       3.85724000       1.49621300      -1.20378300       3.39561400       1.54840797      -1.08149682       3.22967850
Si       0.50050000       1.66927000       5.10425000      -1.02554400      -2.67263500       2.61432900      -0.79222269      -2.91411952       2.62140370
Si       0.41923000       4.50138000       8.15701000       0.82744200      -0.47721100      -2.57541600       1.06628384      -0.40163611      -2.85348995
Si       2.90131000       4.25049000       1.93860000       2.71957100       0.04497600      -0.88170100       2.89914726      -0.01433157      -1.08020879
Si       3.74353000       6.85388000       5.19884000      -1.20766000       1.80214700      -2.20114300      -1.06758511       2.06684631      -2.14252454
Si       3.54209000       6.47938000       8.21357000      -0.45014500      -1.75854100       4.24377300      -0.53940106      -2.00602409       4.44064278
Si       4.55252000       1.74669000       6.40118000       0.28733400       0.20348600      -1.69136000       0.24345246       0.13366086      -1.62843546
Si       5.87020000       3.30923000       5.41310000       1.93974000       0.55942400      -1.14043100       1.56910300       0.78734149      -1.07555250
Si       6.68392000       0.09389000       2.07850000      -2.78148600      -1.30329400       2.70552900      -2.45606436      -1.23941744       2.81320240
Si       7.30980000       7.36953000       0.08595000       4.18267400      -0.22507900      -1.67891000       4.11748037      -0.50933653      -1.67786915
Si       8.41387000       7.50606000       2.97540000       5.08859000       1.78741200      -0.88875800       5.03168709       1.97776750      -0.90001042
54
Lattice="8.579999685 0.0 0.0 0.0 8.579999685 0.0 0.0 0.0 8.5799996" Properties=species:S:1:pos:R:3:REF_forces:R:3:MACE_forces:R:3 config_type=Fe34B10Si10 REF_energy=-359.84864784 MACE_energy=-360.2684920835173 pbc="T T T"
Fe       0.39531000       2.37288000       0.87042000       3.27925500       2.43832800      -1.60261100       3.21279417       2.69819328      -1.76663418
Fe       0.75383000       1.65209000       3.11094000       1.30783500      -0.34615400      -0.09267000       1.28439901      -0.86991228       0.11678806
Fe       1.33201000       3.79282000       7.26231000      -2.40668100      -1.18131200       0.32245500      -2.57753326      -1.10982722       0.25742913
Fe       0.64436000       4.41396000       2.97573000       2.42004200      -2.26182600       0.38963900       2.49438898      -2.09470117       0.29458623
Fe       0.14751000       6.42079000       3.51005000      -3.07002100       1.32407200      -2.30638400      -3.08911002       1.30256076      -2.42601124