54
Lattice="8.579999685 0.0 0.0 0.0 8.579999685 0.0 0.0 0.0 8.5799996" Properties=species:S:1:pos:R:3:REF_forces:R:3:MACE_forces:R:3 config_type=Fe34B10Si10 REF_energy=-352.89092233 MACE_energy=-353.21243884065564 pbc="T T T"
Fe       1.46495000       0.71583000       1.12880000       3.73230100      -3.41607500      -3.76209700       3.61801061      -3.42864909      -3.47635974
Fe       0.56244000       2.07917000       1.96452000      -3.31290700       4.06628900       2.54508600      -3.34256972       4.05372760       2.33574801
Fe       0.86636000       2.12990000       5.00906000     -10.85567700      -2.87102900      12.20968700     -10.88268940      -2.94071202      12.20300596
Fe       0.24697000       2.61233000       7.83061000      -0.37811800      -2.03816900      -0.08744800      -0.37410876      -2.03670677       0.07488163
Fe       0.35437000       4.66395000       8.16447000      -1.30300600       1.62250000       0.84662400      -1.35585406       1.77725844       0.76503706
Fe       0.83543000       8.00840000       3.01492000       5.54921000      -2.55787300       0.52513800       5.62328466      -2.62705165       0.47674093
Fe       2.03952000       7.84431000       6.63062000      -4.28706100       1.82495200      -1.68802900      -4.09811684       2.01981449      -1.74624483
Fe       3.34318000       0.11090000       2.96052000      -0.46571400      -0.35056300       0.37864800      -0.49781863      -0.16671084       0.45475339
Fe       3.26317000       2.11539000       1.48699000      -3.47884800      -0.03222100       0.61542300      -3.30930098      -0.24442689       0.26222977
Fe       4.14313000       2.75755000       3.31065000      -0.71378000      -2.73118300       1.93004800      -0.68430349      -2.44673411       1.87817878
Fe       2.55051000       2.67374000       7.19710000      -2.55215900      -0.93589000       1.77261600      -2.22472649      -1.02399765       1.68511444
Fe       3.61327000       2.86500000       5.46497000       1.55763200       0.20514300      -0.56676300       1.45228111       0.28158648      -0.28894875
Fe       2.62400000       4.72550000       1.39174000      -1.08585200      -1.19598700       0.59645400      -1.32796504      -0.99102368       0.67078964
Fe       2.20317000       5.21693000       3.87451000      -3.92870900      -4.38103900      -4.92199500      -3.94842201      -4.35675666      -5.11804582
Fe       3.93082000       4.37819000       8.08226000       1.07616800       0.44807800      -0.99700400       0.92938569       0.22137280      -0.99582674
Fe       2.44961000       7.01753000       1.08943000       0.32119000      -1.55635000       3.27006500       0.44021802      -1.58055728       3.35233833
Fe       3.02500000       6.15780000       5.08193000      -1.08486800       1.64126100       3.95415400      -0.26160021       1.81857391       4.14206519
Fe       5.77712000       0.44616000       0.16142000      -2.43333700       0.07175000       4.13474700      -2.40826424       0.40900763       4.17476594
Fe       5.66964000       0.14892000       2.95259000      -3.67617900       1.90971100       0.12919700      -3.67992533       1.64958300       0.32638562
Fe       5.39484000       2.66317000       1.55162000       4.08183700      -3.39937100       3.88213200       3.99328234      -3.76020693       4.16597764
Fe       5.91309000       3.40423000       8.31953000       8.90196200       5.48305700      -2.72562400       8.74928017       5.37902870      -2.76428807
Fe       4.96126000       4.63305000       3.41410000      -3.60269200      -2.00302700       2.25051900      -3.87786947      -2.38091074       2.41550466
Fe       5.11347000       6.81217000       1.78872000      -0.87770500       0.06714300      -1.61156800      -0.74043833       0.14097697      -1.68151981
Fe       5.00950000       6.45991000       8.24507000      -2.30619500      -0.19808200      -1.52355700      -2.20801268      -0.01775243      -1.79105541
Fe       4.64263000       7.71190000       5.75084000       2.50156800       4.23919200      -1.55456800       2.55484436       4.28903282      -1.61873622
Fe       7.32285000       0.33022000       5.03535000      -0.99210900      -0.59745100       4.73628300      -0.93884269      -0.34520107       4.68792590
Fe       6.75330000       1.32958000       7.05071000       0.53851300       2.01290400       0.36400700       0.48886020       1.85934000       0.32903738
Fe       6.82686000       2.53028000       3.66692000      -0.08907100      -0.12987400      -0.26318300       0.02590498      -0.18358764      -0.19158814
Fe       6.83617000       5.56618000       0.59386000       1.74434500       1.47371700      -3.32847200       1.76737376       1.72747853      -3.47857577
Fe       8.27091000       4.29855000       2.87718000       3.23308900       0.33980500       1.37352500       3.07864106       0.17370354       1.32556477
Fe       6.58774000       4.90718000       4.97515000      -1.87594500       0.58060600      -0.05143700      -2.05088878       0.60023997      -0.47663361
Fe       6.86773000       6.79187000       3.27473000       1.52763600      -2.76254700       0.67579100       1.46593100      -2.43130391       0.36054488
Fe       8.09083000       8.29691000       0.84396000      -4.18921500      -1.95965200       9.56442300      -4.15208783      -2.20698922       9.64692704
Fe       6.62133000       7.67903000       7.47205000      -3.65417600       1.51975600      -3.32990400      -4.02442601       1.29151305      -3.47114051
B        3.45077000       6.81738000       6.75435000       2.04131500      -2.79808300       3.80923700       1.96565649      -2.91083049       3.90348879
B        4.67436000       1.10514000       4.73414000       0.75036200       0.95391600      -0.52852700       0.79310802       0.97765775      -0.41930146
B        6.18153000       2.20088000       5.47737000      -4.49435700      -3.20609500      -2.27763700      -4.63483958      -3.15655066      -2.49833194
B        5.08133000       4.10197000       6.35983000       0.35152900       0.25548900      -0.65354500       0.48119209       0.24081023      -0.55576686
B        4.48663000       4.29393000       1.40792000      -0.27448100       1.04603100       0.21283300      -0.23918209       1.24371771       0.21893370
B        4.96286000       5.88068000       6.14703000       0.60492000      -1.85032800       0.29314600       0.44440874      -1.82350288       0.12534943
B        8.17242000       5.65216000       5.55863000       1.00443800       0.65677900      -0.69824300       1.07832653       0.64783569      -0.23698459
B        7.98743000       6.92663000       6.60530000       5.86774900       2.58695800      -4.05103700       5.77449367       2.31535072      -3.46231538
B        7.10769000       5.72812000       6.91109000      -2.33709700      -3.34606800       1.34633400      -2.13311961      -3.43918385       1.48299396
B        7.81665000       6.81498000       8.33858000       5.04350100      -2.41043400       0.97359300       4.97201438      -2.57407742       0.45626035
Si       0.06983000       0.14925000       7.74742000       4.12649000       2.60901100      -8.87608100       3.95013027       2.54193245      -8.81033617
Si       1.93337000       2.41223000       3.74634000      10.14534600       2.98113100     -12.18526000      10.19381685       3.03381727     -12.00625164
Si       0.75978000       6.02813000       1.69309000      -4.13401100      -0.74920300       1.02787300      -4.13144536      -0.88402212       0.94387971
Si       2.22023000       5.10313000       7.16329000      -1.58663400       1.19675500      -1.89967800      -1.65956065       1.16967980      -1.84587897
Si       3.27754000       8.17117000       8.35443000       4.04667900       4.58101600      -2.24829100       3.88871647       4.49333352      -2.35555127
Si       4.48145000       2.18337000       8.34202000      -5.72220500      -5.96162700      -4.99603400      -5.45327195      -5.87127243      -5.17066794
Si       6.36439000       4.54151000       2.12641000       2.28764700      -2.33178900       1.39384200       2.59388214      -2.15337759       1.21316124
Si       4.52267000       6.51460000       3.75633000       0.42177200       5.22743800       1.25328700       0.12303318       5.32247332       1.35479389
Si       7.68278000       0.22257000       3.11016000      -0.17295300       4.89916800      -3.86478000      -0.21541386       4.86309748      -3.93585298
Si       7.35363000       3.38410000       6.13231000       4.40786200       1.27045000       2.62604800       4.40898728       1.44015211       2.96382461
54
Lattice="8.579999685 0.0 0.0 0.0 8.579999685 0.0 0.0 0.0 8.5799996" Properties=species:S:1:pos:R:3:REF_forces:R:3:MACE_forces:R:3 config_type=Fe34B10Si10 REF_energy=-354.71875992 MACE_energy=-355.3084531534061 pbc="T T T"
Fe       0.43313000       1.19321000       2.96848000       1.47291300       2.99028000       0.61180900       1.48655607       2.89510864       0.39984788
Fe       0.91365000       1.12516000       8.09995000       2.76260400      -2.00335600       1.20968300       2.39089976      -1.78834548       1.12053984
Fe       1.17142000       2.67870000       5.23446000      -1.90323000       6.04651700       0.58026800      -1.66135843       6.12025806       0.35788332
Fe       0.60772000       3.85484000       0.87278000       2.66909500       4.89444800       4.53699300       2.67776740       5.09384335       4.11097888
Fe       1.41565000       3.44858000       3.01161000      -0.29549500       2.03729500      -0.74017400       0.00496956       1.93257378      -0.70041409
Fe       0.04226000       2.91249000       8.09734000      -3.39897200      -2.84207300      -2.69442200      -2.78546159      -3.00176879      -2.47033559
Fe       1.33282000       7.09057000       5.22634000      -0.45239700      -1.35392500       0.92503500      -0.23335997      -1.45264050       0.94005949
Fe       2.06045000       7.92051000       0.98063000      -3.11321000      -0.30108300      -2.49280600      -3.28363433      -0.43745990      -2.50345683
Fe       2.03627000       8.24295000       3.50701000      -1.42216600       4.38122900       0.88517600      -1.54089938       4.09873157       0.62907575
Fe       0.01253000       8.02686000       7.00667000       2.58679700       0.98610200     -11.80201700       2.48306119       0.86345936     -12.03642173
Fe       3.00353000       0.57289000       6.13981000      -1.03922300       0.18357300       0.93137300      -0.77493482       0.15379543       0.97895771
Fe       3.69949000       2.65196000       7.51811000       2.76433000      -4.34399200      -3.80269000       2.60045760      -4.13654909      -3.70135862
Fe       2.94478000       6.44154000       3.03987000       7.21319500      -3.66655800      -1.17614100       6.99620680      -3.44185236      -0.99177014
Fe       2.94309000       5.75189000       6.64956000      -6.24071800      -0.74678300       3.86021800      -6.43545648      -0.65298746       4.03034424
Fe       3.71160000       8.39321000       1.86324000       2.24845700      -0.43546600       0.28887200       2.40252077      -0.06400248       0.68327171
Fe       4.07810000       8.43915000       4.32840000       2.88035800       1.28304800      -0.49181300       2.84995971       1.29998150      -0.81088516
Fe       5.57499000       0.73262000       6.31633000      -3.12774100      -1.68249800      -0.98058200      -2.76924929      -1.75377598      -0.93071566
Fe       4.70712000       1.94493000       1.65492000      -2.04675700       4.97917500      -3.67899600      -2.10402822       4.74560614      -3.42638770
Fe       4.73401000       4.18392000       1.24748000       0.71501700       1.80608500      -0.06999200       0.70910902       1.96281197      -0.14056152
Fe       4.56687000       4.22266000       4.39618000       0.73801700       3.32591500      -2.10569900       0.48975234       3.17852003      -2.11284762
Fe       4.51224000       4.61167000       7.05684000       2.53211900      -0.41024200       0.53825400       2.95020270      -0.70149834       0.48386073
Fe       6.32808000       6.81945000       4.24288000      -3.20445400      -0.33519400      -1.28892300      -2.80352703      -0.23335486      -1.08044670
Fe       6.22240000       7.17309000       0.16230000      -3.30904600      -2.75215800       1.90373500      -3.46624871      -2.96098838       2.02409010
Fe       4.54224000       7.44382000       7.03838000       0.17895600      -5.02037800      -8.74618400       0.33178314      -5.28653214      -8.86926205
Fe       4.73272000       8.55832000       8.35561000      -0.10588400       8.96287400       6.54083400      -0.36836847       9.31166051       6.17851184
Fe       7.67285000       2.82429000       2.17742000      -2.12886900      -0.76272600      -2.06587500      -2.14400266      -0.80709950      -1.95851703
Fe       6.74071000       1.77406000       4.33655000       0.47479500       0.50025500      -0.42349800       0.06534194       0.40221953      -0.43248300
Fe       7.16362000       1.61896000       6.68131000       5.11373900       1.83737400       0.70818800       4.67547040       1.59063878       0.62078003
Fe       6.73653000       4.13840000       7.84564000       0.19062300       0.32905600       3.59274800       0.17492057       0.46338362       3.59314043
Fe       6.61248000       5.35948000       2.44590000       0.96755600      -0.77403900      -0.47053600       0.86582119      -0.67237065      -0.41642894
Fe       8.39074000       4.95678000       4.82580000       0.50677700       3.21370700       1.22596300       0.54784959       3.16025379       1.08921893
Fe       6.62275000       6.29700000       6.29237000       0.91106900      -0.58785400       1.74696000       0.82955505      -0.49684984       1.60662039
Fe       8.00875000       8.14674000       2.12563000      -1.25903800      -1.94608200      -3.37077000      -0.86917899      -1.86854324      -3.43399790
Fe       7.96861000       8.10559000       4.08816000       1.24434400       0.03207600       4.40361200       0.73318212       0.03808815       4.58134512
B        3.14587000       1.61638000       2.59818000      -3.96044800      -1.57388800      -2.24367700      -3.98251184      -1.47196702      -2.00655580
B        4.07212000       1.93087000       3.78701000       0.55534200       0.12762300      -3.25123200       0.35551656       0.14085714      -3.25086891
B        2.24412000       1.90783000       4.05913000      -1.80380000      -9.70850100      -5.48536600      -1.89321949     -10.08157048      -5.62164011
B        2.90130000       3.06657000       4.45062000       2.48509300       7.60479000      -1.50334300       2.84680136       7.25465703      -1.50500251
B        2.82587000       3.80138000       5.80651000       0.21675600       2.27927400       3.92227300       0.25077653       2.23145095       3.97762234
B        2.60929000       5.04297000       1.66311000       0.12617300      -0.77075900      -0.46531300      -0.01044386      -0.84917165      -0.46842622
B        2.47198000       4.95014000       4.32601000      -0.76752800      -1.31946700       0.35153300      -0.78921101      -1.20776016       0.45850216
B        2.73354000       7.81887000       7.66829000      -1.47869400      -0.15377200       0.00458000      -1.54479416      -0.16639352       0.22777289
B        5.68071000       2.28134000       7.79544000      -0.95924500       0.41857400       1.11780500      -0.97571145       0.40262562       1.09202653
B        7.77536000       3.70665000       3.76574000      -0.44877700      -1.48394500      -0.38974400      -0.53313088      -1.42842419      -0.09407767
Si       0.79518000       0.92195000       5.77957000      -1.66645900      -4.94136200      -1.10925300      -1.62882715      -4.97250737      -0.97906606
Si       0.88055000       4.20706000       6.73551000       1.15626000       3.58432200      -0.32349000       1.10275772       3.65146296      -0.21621561
Si       1.15025000       6.44729000       2.43826000      -7.77651300      -1.83655100      -1.54918700      -7.78255568      -1.73280471      -1.69765441
Si       2.82820000       3.29548000       0.50208000      -4.05499500       1.58525200       5.32597100      -4.04868078       1.36490471       5.24766534
Si       4.14031000       6.38272000       0.30005000      -2.16949800      -2.44928300       2.57761000      -2.33659098      -2.37956954       2.44583219
Si       3.68345000       6.43010000       5.01209000       3.98893100       0.98565200      -2.13453700       3.86219067       1.16828825      -2.18487647
Si       5.73751000       0.59059000       2.53265000       5.08228400      -4.90021500       2.23852200       5.10061028      -4.83655794       2.50862986
Si       4.51163000       2.47994000       5.36819000       2.60737700      -2.86786400       7.12589500       2.81557708      -2.57176464       7.10579761
Si       6.43436000       3.75222000       5.86206000       1.38008400       0.66155200      -3.64612400       1.48862968       0.70270095      -3.73156977
Si       8.06432000       7.52318000       8.55473000       2.36409700      -3.06603600      11.34847700       2.67713883      -2.77277161      11.27986853
18
Lattice="6.5 0.0 0.0 0.0 6.5 0.0 0.0 0.0 6.5" Properties=species:S:1:pos:R:3:REF_forces:R:3:MACE_forces:R:3 config_type=Fe12B3Si3 REF_energy=-113.87843945 MACE_energy=-113.03356017514528 pbc="T T T"
Fe       5.40234000       5.43492000       1.53729000      -1.39532100       2.04028400       0.71142300      -1.01769471       1.81240850       0.69732380
Fe       2.09750000       2.10361000       0.54730000       2.35673700      -0.33103000       1.27254800       2.57417352      -0.14379606       1.40768155
Fe       2.84360000       1.73250000       3.81271000       2.28004000      -1.18251600      -0.27344700       2.26576671      -1.00795573      -0.19943347
Fe       0.77541000       4.93717000       1.04317000       1.56096300      -3.83372900       1.76362000       1.20054414      -3.37400194       1.62830178
Fe       0.07665000       3.70431000       3.74351000      -0.75952900      -0.39175400      -2.23189700      -1.24023542      -0.47588954      -2.24382174
Fe       4.77171000       3.58949000       4.78220000      -1.99219600      -4.62409700       0.48420500      -1.61342465      -4.52545919       0.37843378
Fe       4.12430000       1.49867000       1.46476000       0.29771700      -2.38794700       0.28396300       0.23468396      -2.67836898       0.11878244
Fe       0.95387000       5.17746000       5.28728000      -0.57085000      -0.50160400      -1.80733600      -0.93952441      -0.63923684      -1.38076561
Fe       1.93602000       3.09888000       2.36598000      -0.08855100       0.43128300      -0.27209000      -0.21116978       0.45964281      -0.69231205
Fe       5.69037000       1.28357000       4.20026000      -0.40866000      -0.49067900       0.18976600      -0.86373529      -0.33261832       0.21516174
Fe       1.94321000       2.86141000       5.39871000      -0.55906500       0.73218900      -1.80086600      -0.43803851       0.67301059      -1.95740282
Fe       4.33122000       5.38124000       5.25469000      -0.73272900       4.56545400       1.52017900      -0.53335945       4.37209089       1.58741287
B        0.37598000       1.64060000       1.21420000      -3.21263000       2.85095800       0.76078000      -2.93545384       2.68731276       0.77482110
B        1.88110000       4.04794000       3.96741000       2.48956600       2.45119300      -0.32261600       2.66021757       2.44509336      -0.25754657
B        3.63878000       0.94242000       5.41981000      -0.01444500       0.67937600       0.95779200       0.10469240       0.80482924       1.07989208
Si       1.19380000       0.26963000       0.19686000       0.54051800       0.24528300      -1.93219100       0.61770926       0.04595988      -1.80005984
Si       4.57825000       3.47658000       1.16117000       0.15934200       1.26766700      -0.81102600       0.17691019       1.53248004      -0.82627456
Si       1.09558000       0.76720000       2.75124000       0.04909300      -1.52033200       1.50719200      -0.04206168      -1.65550147       1.46980553
54
Lattice="8.579999685 0.0 0.0 0.0 8.579999685 0.0 0.0 0.0 8.5799996" Properties=species:S:1:pos:R:3:REF_forces:R:3:MACE_forces:R:3 config_type=Fe34B10Si10 REF_energy=-356.0869274 MACE_energy=-356.91032240439944 pbc="T T T"
Fe       0.92877000       1.08311000       2.12831000      -0.53214900      -1.15432400       0.53007800      -0.73768517      -1.17774911       0.39167121
Fe       1.12794000       0.45096000       7.37327000      -2.86345100       2.18226700       1.45805300      -2.81202623       1.96608349       1.41888646
Fe       0.91289000       3.61082000       1.96264000      -1.66570100       0.50807500      -4.76654600      -1.74783420       0.38666821      -4.82190289
Fe       0.97242000       3.25012000       3.83975000      -0.85629000      -1.23507100      -0.91491200      -1.11393327      -1.26170904      -0.14069473
Fe       1.43574000       3.84332000       5.84621000      -1.94378300      -0.72872400       4.94145300      -2.08309255      -0.66052150       4.77186044
Fe       0.45897000       5.99881000       1.32384000       1.86679900       1.45939200      -0.33976700       1.63264727       1.50255953      -0.18040715
Fe       0.05714000       6.25044000       6.01250000       0.66851500      -0.88142700       1.67028200       0.66447507      -0.76531003       1.68447341
Fe       1.87526000       7.05991000       7.27744000      -5.90957000       6.81146600       5.95768600      -5.72710392       7.26226353       6.00712473
Fe       4.21220000       0.80536000       3.81626000       0.44958900      -1.97725700       0.54591300       0.45563304      -1.87869918       0.39952426
Fe       2.64196000       0.75311000       5.88605000       0.80305000      -0.92688600      -1.50973400       0.49465587      -1.02673008      -1.53552713
Fe       2.51735000       4.27963000       7.86001000      -0.17185400       2.88247300       0.00075600      -0.00447873       2.91835755       0.14693747
Fe       2.46175000       4.76211000       4.38544000       2.27245000       6.36429500      -0.60000700       2.20095897       6.37871189      -0.76554648
Fe       3.99132000       4.46692000       6.09268000      -0.21521200      -1.96607600      -0.25853400      -0.17221073      -2.29386484      -0.20286688
Fe       4.03283000       6.20484000       2.50717000       0.32509400      -1.83048700       1.07686200       0.41003518      -1.76493415       1.05126183
Fe       2.62183000       8.12097000       1.25125000      -5.45108600      -1.04608100      -0.88869000      -5.50277540      -1.14575956      -0.64790083
Fe       2.34208000       7.49949000       3.33705000      -1.45221900       0.10179900       1.96325000      -1.27577599       0.17252179       1.64921645
Fe       4.67554000       0.98699000       8.35162000       1.97529500       0.95938300       0.07305200       1.66374260       0.88280536       0.28942400
Fe       4.68615000       2.28426000       1.60336000       6.03713100       4.39249100       1.56082500       6.24929234       4.31757574       1.12875190
Fe       4.95897000       4.28949000       0.91503000       1.24258400       3.77490300      -1.07876200       0.84129922       3.58960495      -1.23376946
Fe       5.62605000       3.84953000       3.25301000      -4.56775200       3.43217100       2.09526400      -4.52806617       3.54982507       1.89692972
Fe       5.63153000       5.70233000       4.67966000       0.04558900       0.36352900      -0.74034800       0.02122463      -0.04224159      -0.58569482
Fe       5.00954000       6.14620000       6.89198000       4.51113600      -2.60361300       1.43664400       4.57560692      -2.36592296       1.44002611
Fe       5.34723000       7.32984000       0.56425000       3.41130600      -7.55812200      -7.44238600       3.53639748      -7.03774651      -7.28024532
Fe       4.57141000       8.20633000       1.67615000      -2.51651100       6.57056000       9.11650700      -2.71579763       6.04453563       8.74201263
Fe       5.67084000       7.83697000       6.02451000      -0.02983000       3.57151200       0.33120700      -0.01784168       3.58636633       0.32837202
Fe       7.65837000       1.05332000       0.64336000       1.95813700       2.93603900      -3.62028800       1.88109484       2.89080589      -3.56581108
Fe       7.23579000       1.49494000       3.62009000       0.88838800      -1.50203300       3.00240400       0.93061516      -1.46544081       3.09126648
Fe       6.96409000       1.59543000       6.70415000       0.40175100      -2.57633900      -0.54943900       0.52908155      -2.53878552      -0.59821698
Fe       6.97946000       3.05325000       2.27831000       3.01329100      -2.85779700      -7.80747400       2.47131341      -2.96112274      -7.29064763
Fe       7.05854000       3.62734000       7.13255000       0.94483300       2.42104600       2.56329500       1.04179937       2.48842779       2.51402342
Fe       7.47490000       4.49325000       0.92243000      -3.13561000       0.06366500       0.11142200      -2.87534304       0.50152860      -0.15094231
Fe       7.76499000       5.40883000       4.05655000       3.42051700      -2.49950500       1.10150300       3.48733088      -2.63321294       1.13073055
Fe       6.91686000       6.16423000       2.38917000      -4.34160700       0.52717700      -3.24358900      -4.32377387       0.55242207      -3.21342609
Fe       7.31773000       7.39473000       4.73130000      -1.41907300       3.06948200       1.38572900      -1.49304486       2.97129546       1.42574084
B        1.63947000       5.44017000       2.85377000      -1.37965300       1.67099600      -0.34434500      -1.50362564       1.78035032      -0.56060092
B        3.47444000       1.29905000       1.69513000      -6.04542900      -7.46227000      -1.52467000      -5.89258977      -7.11365023      -1.05488383
B        2.31673000       1.42955000       3.77944000      -1.85652800      -2.14982900       3.21956500      -1.68280011      -1.98022822       3.41896572
B        3.17088000       0.01260000       8.16689000      -2.14308300      -0.12737100      -3.63430700      -1.99199671       0.11020880      -3.58300322
B        2.48887000       2.23189000       2.44876000      -1.30373000       3.96631200      -0.94871100      -0.89768846       3.81421522      -1.29369700
B        3.55016000       3.21990000       0.17024000       2.13469500      -3.52588700       0.23974700       2.11870344      -3.40884567       0.30844626
B        3.12966000       3.07291000       4.24572000      -6.99085300       0.34377600      -0.16579100      -7.06192545       0.15308098      -0.15324059
B        2.38358000       5.95301000       6.34325000       2.25901800      -8.76611800      -6.31465800       2.15249369      -9.26732020      -6.57645343
B        4.46260000       2.62992000       4.23823000       7.08507900      -1.75449200       0.40993300       7.17081455      -1.89298488       0.45352772
B        7.51183000       3.59374000       3.85724000       1.49621300      -1.20378300       3.39561400       1.55450917      -1.05934749       3.21322608
Si       0.50050000       1.66927000       5.10425000      -1.02554400      -2.67263500       2.61432900      -0.78150472      -2.91812382       2.65657493
Si       0.41923000       4.50138000       8.15701000       0.82744200      -0.47721100      -2.57541600       1.07500297      -0.40409557      -2.88851748
Si       2.90131000       4.25049000       1.93860000       2.71957100       0.04497600      -0.88170100       2.88540882      -0.00986917      -1.08358116
Si       3.74353000       6.85388000       5.19884000      -1.20766000       1.80214700      -2.20114300      -1.06089933       2.07651821      -2.11814135
Si       3.54209000       6.47938000       8.21357000      -0.45014500      -1.75854100       4.24377300      -0.53768677      -2.01911895       4.42141486
Si       4.55252000       1.74669000       6.40118000       0.28733400       0.20348600      -1.69136000       0.21750451       0.11511467      -1.59677204
Si       5.87020000       3.30923000       5.41310000       1.93974000       0.55942400      -1.14043100       1.56810494       0.80928108      -1.07779934
Si       6.68392000       0.09389000       2.07850000      -2.78148600      -1.30329400       2.70552900      -2.42697539      -1.22946877       2.79332097
Si       7.30980000       7.36953000       0.08595000       4.18267400      -0.22507900      -1.67891000       4.11113375      -0.49403556      -1.68104574
Si       8.41387000       7.50606000       2.97540000       5.08859000       1.78741200      -0.88875800       5.02759615       1.99571092      -0.89237458
54
Lattice="8.579999685 0.0 0.0 0.0 8.579999685 0.0 0.0 0.0 8.5799996" Properties=species:S:1:pos:R:3:REF_forces:R:3:MACE_forces:R:3 config_type=Fe34B10Si10 REF_energy=-359.84864784 MACE_energy=-360.138057824513 pbc="T T T"
Fe       0.39531000       2.37288000       0.87042000       3.27925500       2.43832800      -1.60261100       3.20486171       2.70132768      -1.74552642
Fe       0.75383000       1.65209000       3.11094000       1.30783500      -0.34615400      -0.09267000       1.28603675      -0.88383570       0.11656042
Fe       1.33201000       3.79282000       7.26231000      -2.40668100      -1.18131200       0.32245500      -2.60592534      -1.11942668       0.28942571
Fe       0.64436000       4.41396000       2.97573000       2.42004200      -2.26182600       0.38963900       2.49104031      -2.07038023       0.32996594
Fe       0.14751000       6.42079000       3.51005000      -3.07002100       1.32407200      -2.30638400      -3.05557087       1.27022211      -2.36754929