54
Lattice="8.579999685 0.0 0.0 0.0 8.579999685 0.0 0.0 0.0 8.5799996" Properties=species:S:1:pos:R:3:REF_forces:R:3:MACE_forces:R:3 config_type=Fe34B10Si10 REF_energy=-352.89092233 MACE_energy=-353.22666075734656 pbc="T T T"
Fe       1.46495000       0.71583000       1.12880000       3.73230100      -3.41607500      -3.76209700       3.76575947      -3.52395395      -3.72518260
Fe       0.56244000       2.07917000       1.96452000      -3.31290700       4.06628900       2.54508600      -3.38691149       4.14053602       2.43248811
Fe       0.86636000       2.12990000       5.00906000     -10.85567700      -2.87102900      12.20968700     -10.94204937      -2.93971428      12.16508361
Fe       0.24697000       2.61233000       7.83061000      -0.37811800      -2.03816900      -0.08744800      -0.31103765      -2.06317346       0.13822910
Fe       0.35437000       4.66395000       8.16447000      -1.30300600       1.62250000       0.84662400      -1.36476529       1.64799088       0.81029898
Fe       0.83543000       8.00840000       3.01492000       5.54921000      -2.55787300       0.52513800       5.53452646      -2.63854389       0.45113824
Fe       2.03952000       7.84431000       6.63062000      -4.28706100       1.82495200      -1.68802900      -4.03622126       2.02766694      -1.69066031
Fe       3.34318000       0.11090000       2.96052000      -0.46571400      -0.35056300       0.37864800      -0.46910721      -0.18627397       0.49521456
Fe       3.26317000       2.11539000       1.48699000      -3.47884800      -0.03222100       0.61542300      -3.32736391      -0.28593993       0.22543239
Fe       4.14313000       2.75755000       3.31065000      -0.71378000      -2.73118300       1.93004800      -0.67224646      -2.50063505       1.93038302
Fe       2.55051000       2.67374000       7.19710000      -2.55215900      -0.93589000       1.77261600      -2.31668664      -1.04045782       1.71285855
Fe       3.61327000       2.86500000       5.46497000       1.55763200       0.20514300      -0.56676300       1.47208862       0.32310850      -0.26208150
Fe       2.62400000       4.72550000       1.39174000      -1.08585200      -1.19598700       0.59645400      -1.37622875      -0.90609758       0.73177338
Fe       2.20317000       5.21693000       3.87451000      -3.92870900      -4.38103900      -4.92199500      -3.87833920      -4.38570325      -5.03218503
Fe       3.93082000       4.37819000       8.08226000       1.07616800       0.44807800      -0.99700400       1.06529912       0.26998093      -1.09967836
Fe       2.44961000       7.01753000       1.08943000       0.32119000      -1.55635000       3.27006500       0.46866083      -1.64777944       3.31918948
Fe       3.02500000       6.15780000       5.08193000      -1.08486800       1.64126100       3.95415400      -0.46954375       1.59137076       3.92604726
Fe       5.77712000       0.44616000       0.16142000      -2.43333700       0.07175000       4.13474700      -2.40941105       0.43533134       4.19885989
Fe       5.66964000       0.14892000       2.95259000      -3.67617900       1.90971100       0.12919700      -3.69983002       1.66923974       0.28098475
Fe       5.39484000       2.66317000       1.55162000       4.08183700      -3.39937100       3.88213200       3.94068784      -3.77704241       4.09167033
Fe       5.91309000       3.40423000       8.31953000       8.90196200       5.48305700      -2.72562400       8.71109916       5.53013331      -2.78449414
Fe       4.96126000       4.63305000       3.41410000      -3.60269200      -2.00302700       2.25051900      -3.84408881      -2.23760583       2.38849795
Fe       5.11347000       6.81217000       1.78872000      -0.87770500       0.06714300      -1.61156800      -0.65433797       0.11276929      -1.59478435
Fe       5.00950000       6.45991000       8.24507000      -2.30619500      -0.19808200      -1.52355700      -2.23637133      -0.04648378      -1.64842150
Fe       4.64263000       7.71190000       5.75084000       2.50156800       4.23919200      -1.55456800       2.57823709       4.25235841      -1.68797209
Fe       7.32285000       0.33022000       5.03535000      -0.99210900      -0.59745100       4.73628300      -1.04203843      -0.39029786       4.73962085
Fe       6.75330000       1.32958000       7.05071000       0.53851300       2.01290400       0.36400700       0.46257927       1.87886342       0.35701059
Fe       6.82686000       2.53028000       3.66692000      -0.08907100      -0.12987400      -0.26318300       0.04188282      -0.20313568      -0.24956874
Fe       6.83617000       5.56618000       0.59386000       1.74434500       1.47371700      -3.32847200       1.82501757       1.88259755      -3.42469792
Fe       8.27091000       4.29855000       2.87718000       3.23308900       0.33980500       1.37352500       3.13914852       0.20035860       1.39611541
Fe       6.58774000       4.90718000       4.97515000      -1.87594500       0.58060600      -0.05143700      -2.07566678       0.50586282      -0.65030152
Fe       6.86773000       6.79187000       3.27473000       1.52763600      -2.76254700       0.67579100       1.46534352      -2.45359752       0.34701010
Fe       8.09083000       8.29691000       0.84396000      -4.18921500      -1.95965200       9.56442300      -4.32922378      -2.31544129       9.53421047
Fe       6.62133000       7.67903000       7.47205000      -3.65417600       1.51975600      -3.32990400      -3.95189559       1.32706299      -3.46705900
B        3.45077000       6.81738000       6.75435000       2.04131500      -2.79808300       3.80923700       1.87717212      -2.77186211       3.97759750
B        4.67436000       1.10514000       4.73414000       0.75036200       0.95391600      -0.52852700       0.82957746       0.87304733      -0.40591493
B        6.18153000       2.20088000       5.47737000      -4.49435700      -3.20609500      -2.27763700      -4.67794040      -3.14613802      -2.38078977
B        5.08133000       4.10197000       6.35983000       0.35152900       0.25548900      -0.65354500       0.54776850       0.37455654      -0.62775738
B        4.48663000       4.29393000       1.40792000      -0.27448100       1.04603100       0.21283300      -0.19131153       1.19581303       0.24445776
B        4.96286000       5.88068000       6.14703000       0.60492000      -1.85032800       0.29314600       0.53142011      -1.92714506       0.17003862
B        8.17242000       5.65216000       5.55863000       1.00443800       0.65677900      -0.69824300       0.99169821       0.79985420      -0.32747697
B        7.98743000       6.92663000       6.60530000       5.86774900       2.58695800      -4.05103700       5.80205741       2.35551293      -3.76161874
B        7.10769000       5.72812000       6.91109000      -2.33709700      -3.34606800       1.34633400      -2.13277737      -3.40699447       1.70641671
B        7.81665000       6.81498000       8.33858000       5.04350100      -2.41043400       0.97359300       5.14207982      -2.67573800       0.58054288
Si       0.06983000       0.14925000       7.74742000       4.12649000       2.60901100      -8.87608100       4.06932266       2.60427234      -8.72269932
Si       1.93337000       2.41223000       3.74634000      10.14534600       2.98113100     -12.18526000      10.21778927       3.07495326     -11.99984602
Si       0.75978000       6.02813000       1.69309000      -4.13401100      -0.74920300       1.02787300      -4.14128607      -0.82930113       0.97822766
Si       2.22023000       5.10313000       7.16329000      -1.58663400       1.19675500      -1.89967800      -1.64077027       1.14464426      -1.92739273
Si       3.27754000       8.17117000       8.35443000       4.04667900       4.58101600      -2.24829100       3.93534253       4.59822972      -2.41292410
Si       4.48145000       2.18337000       8.34202000      -5.72220500      -5.96162700      -4.99603400      -5.54458121      -5.97192775      -5.11636215
Si       6.36439000       4.54151000       2.12641000       2.28764700      -2.33178900       1.39384200       2.50354860      -2.11261749       1.35541655
Si       4.52267000       6.51460000       3.75633000       0.42177200       5.22743800       1.25328700       0.12078266       5.31574177       1.33662051
Si       7.68278000       0.22257000       3.11016000      -0.17295300       4.89916800      -3.86478000      -0.26801350       4.81242942      -3.95345925
Si       7.35363000       3.38410000       6.13231000       4.40786200       1.27045000       2.62604800       4.35115548       1.43931471       2.93189321
54
Lattice="8.579999685 0.0 0.0 0.0 8.579999685 0.0 0.0 0.0 8.5799996" Properties=species:S:1:pos:R:3:REF_forces:R:3:MACE_forces:R:3 config_type=Fe34B10Si10 REF_energy=-354.71875992 MACE_energy=-355.3241846468451 pbc="T T T"
Fe       0.43313000       1.19321000       2.96848000       1.47291300       2.99028000       0.61180900       1.49590623       2.96047446       0.31862698
Fe       0.91365000       1.12516000       8.09995000       2.76260400      -2.00335600       1.20968300       2.42262561      -2.03139089       1.08274326
Fe       1.17142000       2.67870000       5.23446000      -1.90323000       6.04651700       0.58026800      -1.76550266       6.09709775       0.44039318
Fe       0.60772000       3.85484000       0.87278000       2.66909500       4.89444800       4.53699300       2.52672607       4.94901971       4.16589811
Fe       1.41565000       3.44858000       3.01161000      -0.29549500       2.03729500      -0.74017400      -0.09826083       1.91526230      -0.69070176
Fe       0.04226000       2.91249000       8.09734000      -3.39897200      -2.84207300      -2.69442200      -2.78355726      -2.83022016      -2.31200914
Fe       1.33282000       7.09057000       5.22634000      -0.45239700      -1.35392500       0.92503500      -0.22435864      -1.51692225       0.96787878
Fe       2.06045000       7.92051000       0.98063000      -3.11321000      -0.30108300      -2.49280600      -3.10725278      -0.40491839      -2.37603165
Fe       2.03627000       8.24295000       3.50701000      -1.42216600       4.38122900       0.88517600      -1.45898597       4.13662498       0.66949277
Fe       0.01253000       8.02686000       7.00667000       2.58679700       0.98610200     -11.80201700       2.44343972       0.93015626     -11.88000290
Fe       3.00353000       0.57289000       6.13981000      -1.03922300       0.18357300       0.93137300      -0.82453802       0.11298352       1.01173007
Fe       3.69949000       2.65196000       7.51811000       2.76433000      -4.34399200      -3.80269000       2.59231472      -4.11886847      -3.68830481
Fe       2.94478000       6.44154000       3.03987000       7.21319500      -3.66655800      -1.17614100       7.04654858      -3.47342429      -1.01215349
Fe       2.94309000       5.75189000       6.64956000      -6.24071800      -0.74678300       3.86021800      -6.50406080      -0.64949887       3.84178639
Fe       3.71160000       8.39321000       1.86324000       2.24845700      -0.43546600       0.28887200       2.18050831      -0.17289718       0.67641424
Fe       4.07810000       8.43915000       4.32840000       2.88035800       1.28304800      -0.49181300       2.86569011       1.37496511      -0.77137838
Fe       5.57499000       0.73262000       6.31633000      -3.12774100      -1.68249800      -0.98058200      -2.83849393      -1.66485925      -0.88403944
Fe       4.70712000       1.94493000       1.65492000      -2.04675700       4.97917500      -3.67899600      -2.11555341       4.75797380      -3.51198678
Fe       4.73401000       4.18392000       1.24748000       0.71501700       1.80608500      -0.06999200       0.69734514       2.02090617      -0.11021099
Fe       4.56687000       4.22266000       4.39618000       0.73801700       3.32591500      -2.10569900       0.47905854       3.15250086      -2.19124922
Fe       4.51224000       4.61167000       7.05684000       2.53211900      -0.41024200       0.53825400       2.98676984      -0.75512022       0.49280982
Fe       6.32808000       6.81945000       4.24288000      -3.20445400      -0.33519400      -1.28892300      -2.81586594      -0.25268909      -1.11988769
Fe       6.22240000       7.17309000       0.16230000      -3.30904600      -2.75215800       1.90373500      -3.48846179      -3.06594050       2.09214590
Fe       4.54224000       7.44382000       7.03838000       0.17895600      -5.02037800      -8.74618400       0.28085990      -5.24878991      -8.95325901
Fe       4.73272000       8.55832000       8.35561000      -0.10588400       8.96287400       6.54083400      -0.17890795       9.50183937       6.22561137
Fe       7.67285000       2.82429000       2.17742000      -2.12886900      -0.76272600      -2.06587500      -2.06845054      -0.80753297      -1.98671946
Fe       6.74071000       1.77406000       4.33655000       0.47479500       0.50025500      -0.42349800       0.08052265       0.46766015      -0.49077450
Fe       7.16362000       1.61896000       6.68131000       5.11373900       1.83737400       0.70818800       4.78648980       1.69378430       0.63410922
Fe       6.73653000       4.13840000       7.84564000       0.19062300       0.32905600       3.59274800       0.09861736       0.50626159       3.64141601
Fe       6.61248000       5.35948000       2.44590000       0.96755600      -0.77403900      -0.47053600       0.84486235      -0.68543296      -0.51273331
Fe       8.39074000       4.95678000       4.82580000       0.50677700       3.21370700       1.22596300       0.58395685       3.11037549       1.10359655
Fe       6.62275000       6.29700000       6.29237000       0.91106900      -0.58785400       1.74696000       0.79076075      -0.46594280       1.60909034
Fe       8.00875000       8.14674000       2.12563000      -1.25903800      -1.94608200      -3.37077000      -0.89243224      -1.94345508      -3.40673412
Fe       7.96861000       8.10559000       4.08816000       1.24434400       0.03207600       4.40361200       0.69730653      -0.02416032       4.51218337
B        3.14587000       1.61638000       2.59818000      -3.96044800      -1.57388800      -2.24367700      -3.97436033      -1.48523606      -2.00062065
B        4.07212000       1.93087000       3.78701000       0.55534200       0.12762300      -3.25123200       0.43306008       0.10080991      -3.23281251
B        2.24412000       1.90783000       4.05913000      -1.80380000      -9.70850100      -5.48536600      -1.83842772      -9.90918015      -5.58012087
B        2.90130000       3.06657000       4.45062000       2.48509300       7.60479000      -1.50334300       2.91724102       7.33439219      -1.48314769
B        2.82587000       3.80138000       5.80651000       0.21675600       2.27927400       3.92227300       0.34540324       2.12964343       3.83767477
B        2.60929000       5.04297000       1.66311000       0.12617300      -0.77075900      -0.46531300      -0.07258174      -0.75110861      -0.36205341
B        2.47198000       4.95014000       4.32601000      -0.76752800      -1.31946700       0.35153300      -0.81029023      -1.22029375       0.30682046
B        2.73354000       7.81887000       7.66829000      -1.47869400      -0.15377200       0.00458000      -1.53940169      -0.18051408       0.17645393
B        5.68071000       2.28134000       7.79544000      -0.95924500       0.41857400       1.11780500      -0.92323114       0.34507106       1.06549407
B        7.77536000       3.70665000       3.76574000      -0.44877700      -1.48394500      -0.38974400      -0.55207666      -1.40784525      -0.03143493
Si       0.79518000       0.92195000       5.77957000      -1.66645900      -4.94136200      -1.10925300      -1.61988372      -5.12205769      -0.94548425
Si       0.88055000       4.20706000       6.73551000       1.15626000       3.58432200      -0.32349000       1.09950313       3.78454778      -0.19300272
Si       1.15025000       6.44729000       2.43826000      -7.77651300      -1.83655100      -1.54918700      -7.91640052      -1.74389932      -1.72832156
Si       2.82820000       3.29548000       0.50208000      -4.05499500       1.58525200       5.32597100      -4.13501658       1.49085374       5.27669391
Si       4.14031000       6.38272000       0.30005000      -2.16949800      -2.44928300       2.57761000      -2.20279655      -2.51316128       2.57206372
Si       3.68345000       6.43010000       5.01209000       3.98893100       0.98565200      -2.13453700       3.85717283       1.18809860      -2.07207719
Si       5.73751000       0.59059000       2.53265000       5.08228400      -4.90021500       2.23852200       5.18002235      -4.93199618       2.49622868
Si       4.51163000       2.47994000       5.36819000       2.60737700      -2.86786400       7.12589500       2.76497609      -2.66875756       6.97496802
Si       6.43436000       3.75222000       5.86206000       1.38008400       0.66155200      -3.64612400       1.58924300       0.80133119      -3.77425001
Si       8.06432000       7.52318000       8.55473000       2.36409700      -3.06603600      11.34847700       2.66221884      -2.81652014      11.10917853
18
Lattice="6.5 0.0 0.0 0.0 6.5 0.0 0.0 0.0 6.5" Properties=species:S:1:pos:R:3:REF_forces:R:3:MACE_forces:R:3 config_type=Fe12B3Si3 REF_energy=-113.87843945 MACE_energy=-113.05411654266393 pbc="T T T"
Fe       5.40234000       5.43492000       1.53729000      -1.39532100       2.04028400       0.71142300      -1.15483958       1.97957366       0.70041986
Fe       2.09750000       2.10361000       0.54730000       2.35673700      -0.33103000       1.27254800       2.52702733      -0.09826280       1.09560820
Fe       2.84360000       1.73250000       3.81271000       2.28004000      -1.18251600      -0.27344700       2.19628020      -1.04093284      -0.15452937
Fe       0.77541000       4.93717000       1.04317000       1.56096300      -3.83372900       1.76362000       1.42867542      -3.61524485       1.48919569
Fe       0.07665000       3.70431000       3.74351000      -0.75952900      -0.39175400      -2.23189700      -1.00853186      -0.41828708      -2.29549152
Fe       4.77171000       3.58949000       4.78220000      -1.99219600      -4.62409700       0.48420500      -1.80187949      -4.61098863       0.42534469
Fe       4.12430000       1.49867000       1.46476000       0.29771700      -2.38794700       0.28396300       0.31547264      -2.66367682       0.12250970
Fe       0.95387000       5.17746000       5.28728000      -0.57085000      -0.50160400      -1.80733600      -0.94540404      -0.69828210      -1.30074945
Fe       1.93602000       3.09888000       2.36598000      -0.08855100       0.43128300      -0.27209000      -0.13689545       0.60976918      -0.40321164
Fe       5.69037000       1.28357000       4.20026000      -0.40866000      -0.49067900       0.18976600      -0.67116905      -0.26972018       0.17516114
Fe       1.94321000       2.86141000       5.39871000      -0.55906500       0.73218900      -1.80086600      -0.61370421       0.80386883      -1.84749283
Fe       4.33122000       5.38124000       5.25469000      -0.73272900       4.56545400       1.52017900      -0.70817205       4.41489541       1.53554443
B        0.37598000       1.64060000       1.21420000      -3.21263000       2.85095800       0.76078000      -3.09508172       2.70689009       0.91850309
B        1.88110000       4.04794000       3.96741000       2.48956600       2.45119300      -0.32261600       2.68889925       2.29708478      -0.38544862
B        3.63878000       0.94242000       5.41981000      -0.01444500       0.67937600       0.95779200       0.15705589       0.82060973       1.05752644
Si       1.19380000       0.26963000       0.19686000       0.54051800       0.24528300      -1.93219100       0.68269016       0.02326687      -1.91820871
Si       4.57825000       3.47658000       1.16117000       0.15934200       1.26766700      -0.81102600       0.19811331       1.42740461      -0.71392925
Si       1.09558000       0.76720000       2.75124000       0.04909300      -1.52033200       1.50719200      -0.05853676      -1.66796786       1.49924816
54
Lattice="8.579999685 0.0 0.0 0.0 8.579999685 0.0 0.0 0.0 8.5799996" Properties=species:S:1:pos:R:3:REF_forces:R:3:MACE_forces:R:3 config_type=Fe34B10Si10 REF_energy=-356.0869274 MACE_energy=-356.8160552560967 pbc="T T T"
Fe       0.92877000       1.08311000       2.12831000      -0.53214900      -1.15432400       0.53007800      -0.69323508      -1.24960967       0.39451257
Fe       1.12794000       0.45096000       7.37327000      -2.86345100       2.18226700       1.45805300      -2.86775626       2.02099221       1.46413169
Fe       0.91289000       3.61082000       1.96264000      -1.66570100       0.50807500      -4.76654600      -1.66053743       0.26160171      -4.75680484
Fe       0.97242000       3.25012000       3.83975000      -0.85629000      -1.23507100      -0.91491200      -1.08518639      -1.18461980      -0.41422819
Fe       1.43574000       3.84332000       5.84621000      -1.94378300      -0.72872400       4.94145300      -2.07560148      -0.52217212       4.71295660
Fe       0.45897000       5.99881000       1.32384000       1.86679900       1.45939200      -0.33976700       1.64260523       1.57999680      -0.19679808
Fe       0.05714000       6.25044000       6.01250000       0.66851500      -0.88142700       1.67028200       0.74585245      -0.74446988       1.80455453
Fe       1.87526000       7.05991000       7.27744000      -5.90957000       6.81146600       5.95768600      -5.77178966       7.19795753       5.93551729
Fe       4.21220000       0.80536000       3.81626000       0.44958900      -1.97725700       0.54591300       0.57351493      -1.91198849       0.43538544
Fe       2.64196000       0.75311000       5.88605000       0.80305000      -0.92688600      -1.50973400       0.61986762      -1.09680712      -1.56733066
Fe       2.51735000       4.27963000       7.86001000      -0.17185400       2.88247300       0.00075600       0.00253373       2.97395796       0.38022263
Fe       2.46175000       4.76211000       4.38544000       2.27245000       6.36429500      -0.60000700       2.25531154       6.39113025      -0.55104213
Fe       3.99132000       4.46692000       6.09268000      -0.21521200      -1.96607600      -0.25853400      -0.23487914      -2.14068852      -0.16078122
Fe       4.03283000       6.20484000       2.50717000       0.32509400      -1.83048700       1.07686200       0.45065985      -1.71797300       1.17468027
Fe       2.62183000       8.12097000       1.25125000      -5.45108600      -1.04608100      -0.88869000      -5.57786040      -1.02706780      -0.55617496
Fe       2.34208000       7.49949000       3.33705000      -1.45221900       0.10179900       1.96325000      -1.29436630       0.22917158       1.58501537
Fe       4.67554000       0.98699000       8.35162000       1.97529500       0.95938300       0.07305200       1.78582144       0.79474015       0.42823671
Fe       4.68615000       2.28426000       1.60336000       6.03713100       4.39249100       1.56082500       6.19618300       4.33615274       1.16211779
Fe       4.95897000       4.28949000       0.91503000       1.24258400       3.77490300      -1.07876200       0.64656080       3.43071382      -1.24210853
Fe       5.62605000       3.84953000       3.25301000      -4.56775200       3.43217100       2.09526400      -4.63140590       3.49154453       1.94332573
Fe       5.63153000       5.70233000       4.67966000       0.04558900       0.36352900      -0.74034800       0.09669744      -0.07469156      -0.61294688
Fe       5.00954000       6.14620000       6.89198000       4.51113600      -2.60361300       1.43664400       4.52222257      -2.43050333       1.37117420
Fe       5.34723000       7.32984000       0.56425000       3.41130600      -7.55812200      -7.44238600       3.31847351      -7.05116031      -7.27156078
Fe       4.57141000       8.20633000       1.67615000      -2.51651100       6.57056000       9.11650700      -2.58039636       6.18888118       8.70731177
Fe       5.67084000       7.83697000       6.02451000      -0.02983000       3.57151200       0.33120700      -0.08959800       3.73976408       0.40292620
Fe       7.65837000       1.05332000       0.64336000       1.95813700       2.93603900      -3.62028800       1.89017178       2.97488819      -3.49790532
Fe       7.23579000       1.49494000       3.62009000       0.88838800      -1.50203300       3.00240400       0.98150479      -1.61330753       3.04639982
Fe       6.96409000       1.59543000       6.70415000       0.40175100      -2.57633900      -0.54943900       0.53611381      -2.53362797      -0.51759600
Fe       6.97946000       3.05325000       2.27831000       3.01329100      -2.85779700      -7.80747400       2.49324327      -2.99624435      -7.20778468
Fe       7.05854000       3.62734000       7.13255000       0.94483300       2.42104600       2.56329500       1.05750523       2.45095011       2.49977008
Fe       7.47490000       4.49325000       0.92243000      -3.13561000       0.06366500       0.11142200      -2.92581859       0.41946759      -0.36149212
Fe       7.76499000       5.40883000       4.05655000       3.42051700      -2.49950500       1.10150300       3.49611407      -2.68012827       1.16034137
Fe       6.91686000       6.16423000       2.38917000      -4.34160700       0.52717700      -3.24358900      -4.29666756       0.65273064      -3.17803217
Fe       7.31773000       7.39473000       4.73130000      -1.41907300       3.06948200       1.38572900      -1.39520416       3.08411212       1.30704303
B        1.63947000       5.44017000       2.85377000      -1.37965300       1.67099600      -0.34434500      -1.43322973       1.76701650      -0.58926799
B        3.47444000       1.29905000       1.69513000      -6.04542900      -7.46227000      -1.52467000      -5.90424180      -7.26822076      -1.19237031
B        2.31673000       1.42955000       3.77944000      -1.85652800      -2.14982900       3.21956500      -1.76944255      -1.96793483       3.50289543
B        3.17088000       0.01260000       8.16689000      -2.14308300      -0.12737100      -3.63430700      -2.10156793       0.07488073      -3.58782509
B        2.48887000       2.23189000       2.44876000      -1.30373000       3.96631200      -0.94871100      -0.86592820       3.90119041      -1.24781213
B        3.55016000       3.21990000       0.17024000       2.13469500      -3.52588700       0.23974700       2.11384403      -3.42676011       0.17726450
B        3.12966000       3.07291000       4.24572000      -6.99085300       0.34377600      -0.16579100      -7.16636259       0.02571931      -0.34789487
B        2.38358000       5.95301000       6.34325000       2.25901800      -8.76611800      -6.31465800       2.26069019      -9.20273708      -6.52789608
B        4.46260000       2.62992000       4.23823000       7.08507900      -1.75449200       0.40993300       7.22997921      -1.70861819       0.46828795
B        7.51183000       3.59374000       3.85724000       1.49621300      -1.20378300       3.39561400       1.51141978      -1.11217470       3.32835846
Si       0.50050000       1.66927000       5.10425000      -1.02554400      -2.67263500       2.61432900      -0.86464963      -2.94502098       2.50214808
Si       0.41923000       4.50138000       8.15701000       0.82744200      -0.47721100      -2.57541600       1.07051099      -0.50243232      -2.80812558
Si       2.90131000       4.25049000       1.93860000       2.71957100       0.04497600      -0.88170100       2.94633954      -0.05991122      -1.13465038
Si       3.74353000       6.85388000       5.19884000      -1.20766000       1.80214700      -2.20114300      -1.10166072       1.93945287      -2.19359220
Si       3.54209000       6.47938000       8.21357000      -0.45014500      -1.75854100       4.24377300      -0.57931280      -2.00108636       4.43169200
Si       4.55252000       1.74669000       6.40118000       0.28733400       0.20348600      -1.69136000       0.28157093       0.18233887      -1.72917119
Si       5.87020000       3.30923000       5.41310000       1.93974000       0.55942400      -1.14043100       1.56128016       0.71869938      -1.17558159
Si       6.68392000       0.09389000       2.07850000      -2.78148600      -1.30329400       2.70552900      -2.46173244      -1.20872897       2.84316552
Si       7.30980000       7.36953000       0.08595000       4.18267400      -0.22507900      -1.67891000       4.12632927      -0.48173333      -1.67086108
Si       8.41387000       7.50606000       2.97540000       5.08859000       1.78741200      -0.88875800       5.01550993       2.03236729      -0.87179998
54
Lattice="8.579999685 0.0 0.0 0.0 8.579999685 0.0 0.0 0.0 8.5799996" Properties=species:S:1:pos:R:3:REF_forces:R:3:MACE_forces:R:3 config_type=Fe34B10Si10 REF_energy=-359.84864784 MACE_energy=-360.29858995191125 pbc="T T T"
Fe       0.39531000       2.37288000       0.87042000       3.27925500       2.43832800      -1.60261100       3.22850305       2.57621405      -1.73186976
Fe       0.75383000       1.65209000       3.11094000       1.30783500      -0.34615400      -0.09267000       1.25900476      -0.77883485       0.23705251
Fe       1.33201000       3.79282000       7.26231000      -2.40668100      -1.18131200       0.32245500      -2.54960771      -1.05865693       0.17227654
Fe       0.64436000       4.41396000       2.97573000       2.42004200      -2.26182600       0.38963900       2.47919547      -2.04401542       0.21762035
Fe       0.14751000       6.42079000       3.51005000      -3.07002100       1.32407200      -2.30638400      -3.11615069       1.37970538      -2.54689115