54
Lattice="8.579999685 0.0 0.0 0.0 8.579999685 0.0 0.0 0.0 8.5799996" Properties=species:S:1:pos:R:3:REF_forces:R:3:MACE_forces:R:3 config_type=Fe34B10Si10 REF_energy=-352.89092233 MACE_energy=-353.5410824693164 pbc="T T T"
Fe       1.46495000       0.71583000       1.12880000       3.73230100      -3.41607500      -3.76209700       4.07848400      -4.30883701      -3.88942898
Fe       0.56244000       2.07917000       1.96452000      -3.31290700       4.06628900       2.54508600      -3.97905808       4.88816401       2.85774737
Fe       0.86636000       2.12990000       5.00906000     -10.85567700      -2.87102900      12.20968700     -10.66661419      -2.82580746      11.77824387
Fe       0.24697000       2.61233000       7.83061000      -0.37811800      -2.03816900      -0.08744800      -0.39107100      -2.23045182      -0.06525081
Fe       0.35437000       4.66395000       8.16447000      -1.30300600       1.62250000       0.84662400      -1.44679935       1.90355292       0.78190282
Fe       0.83543000       8.00840000       3.01492000       5.54921000      -2.55787300       0.52513800       5.54497466      -2.52809992       0.50012015
Fe       2.03952000       7.84431000       6.63062000      -4.28706100       1.82495200      -1.68802900      -3.96759248       1.88679397      -1.83308847
Fe       3.34318000       0.11090000       2.96052000      -0.46571400      -0.35056300       0.37864800      -0.40589217      -0.20808299       0.59708890
Fe       3.26317000       2.11539000       1.48699000      -3.47884800      -0.03222100       0.61542300      -3.58244597      -0.27469859       0.19974407
Fe       4.14313000       2.75755000       3.31065000      -0.71378000      -2.73118300       1.93004800      -0.53704170      -2.79564514       2.03787356
Fe       2.55051000       2.67374000       7.19710000      -2.55215900      -0.93589000       1.77261600      -2.22821209      -0.99444147       1.81308281
Fe       3.61327000       2.86500000       5.46497000       1.55763200       0.20514300      -0.56676300       1.51961154       0.29056643      -0.43423640
Fe       2.62400000       4.72550000       1.39174000      -1.08585200      -1.19598700       0.59645400      -1.17298101      -1.10083936       0.68460733
Fe       2.20317000       5.21693000       3.87451000      -3.92870900      -4.38103900      -4.92199500      -5.22267486      -5.79704984      -6.98315512
Fe       3.93082000       4.37819000       8.08226000       1.07616800       0.44807800      -0.99700400       0.98243332       0.06579993      -1.03784001
Fe       2.44961000       7.01753000       1.08943000       0.32119000      -1.55635000       3.27006500       0.23548166      -1.51645472       3.32440709
Fe       3.02500000       6.15780000       5.08193000      -1.08486800       1.64126100       3.95415400       1.35196897       3.40584705       6.37532578
Fe       5.77712000       0.44616000       0.16142000      -2.43333700       0.07175000       4.13474700      -2.33220781       0.54100593       4.22589403
Fe       5.66964000       0.14892000       2.95259000      -3.67617900       1.90971100       0.12919700      -3.77414550       1.75303287       0.35944416
Fe       5.39484000       2.66317000       1.55162000       4.08183700      -3.39937100       3.88213200       4.04689248      -3.54203242       4.42939351
Fe       5.91309000       3.40423000       8.31953000       8.90196200       5.48305700      -2.72562400       8.66912033       5.35650014      -2.78871706
Fe       4.96126000       4.63305000       3.41410000      -3.60269200      -2.00302700       2.25051900      -3.55095211      -2.08885251       2.45012554
Fe       5.11347000       6.81217000       1.78872000      -0.87770500       0.06714300      -1.61156800      -0.80630297       0.11536252      -1.48562612
Fe       5.00950000       6.45991000       8.24507000      -2.30619500      -0.19808200      -1.52355700      -2.28246319       0.06591740      -2.11345798
Fe       4.64263000       7.71190000       5.75084000       2.50156800       4.23919200      -1.55456800       2.42828470       4.26443604      -1.68330332
Fe       7.32285000       0.33022000       5.03535000      -0.99210900      -0.59745100       4.73628300      -0.80996052      -0.28445902       4.57622333
Fe       6.75330000       1.32958000       7.05071000       0.53851300       2.01290400       0.36400700       0.51602912       2.08376781       0.28844635
Fe       6.82686000       2.53028000       3.66692000      -0.08907100      -0.12987400      -0.26318300      -0.19423199      -0.14979534      -0.19909595
Fe       6.83617000       5.56618000       0.59386000       1.74434500       1.47371700      -3.32847200       2.06256928       1.69526295      -3.37225255
Fe       8.27091000       4.29855000       2.87718000       3.23308900       0.33980500       1.37352500       2.90957754       0.20912130       1.29030295
Fe       6.58774000       4.90718000       4.97515000      -1.87594500       0.58060600      -0.05143700      -1.89169650       0.61484532      -0.42056133
Fe       6.86773000       6.79187000       3.27473000       1.52763600      -2.76254700       0.67579100       1.42701525      -2.54418137       0.38149723
Fe       8.09083000       8.29691000       0.84396000      -4.18921500      -1.95965200       9.56442300      -3.94084655      -1.96131363       9.76342332
Fe       6.62133000       7.67903000       7.47205000      -3.65417600       1.51975600      -3.32990400      -3.92225419       0.97815545      -3.52272148
B        3.45077000       6.81738000       6.75435000       2.04131500      -2.79808300       3.80923700       1.90770948      -2.94481714       3.84047144
B        4.67436000       1.10514000       4.73414000       0.75036200       0.95391600      -0.52852700       0.72309553       1.04212607      -0.48932250
B        6.18153000       2.20088000       5.47737000      -4.49435700      -3.20609500      -2.27763700      -4.26297345      -2.94008455      -2.35776796
B        5.08133000       4.10197000       6.35983000       0.35152900       0.25548900      -0.65354500       0.35391548       0.20948089      -0.50319713
B        4.48663000       4.29393000       1.40792000      -0.27448100       1.04603100       0.21283300      -0.32665275       1.16104647       0.12674752
B        4.96286000       5.88068000       6.14703000       0.60492000      -1.85032800       0.29314600       0.32440901      -1.68249968       0.25484572
B        8.17242000       5.65216000       5.55863000       1.00443800       0.65677900      -0.69824300       0.85978324       0.44947920      -0.31148793
B        7.98743000       6.92663000       6.60530000       5.86774900       2.58695800      -4.05103700       5.58716228       2.28546892      -3.37469293
B        7.10769000       5.72812000       6.91109000      -2.33709700      -3.34606800       1.34633400      -2.12523681      -3.45407558       1.44116495
B        7.81665000       6.81498000       8.33858000       5.04350100      -2.41043400       0.97359300       4.56584742      -2.60366843       0.38195669
Si       0.06983000       0.14925000       7.74742000       4.12649000       2.60901100      -8.87608100       3.77613165       2.62416809      -8.58393893
Si       1.93337000       2.41223000       3.74634000      10.14534600       2.98113100     -12.18526000       9.93886325       2.86721603     -11.63105097
Si       0.75978000       6.02813000       1.69309000      -4.13401100      -0.74920300       1.02787300      -3.97065496      -0.89864560       0.82586451
Si       2.22023000       5.10313000       7.16329000      -1.58663400       1.19675500      -1.89967800      -1.60606772       1.16656273      -1.99699896
Si       3.27754000       8.17117000       8.35443000       4.04667900       4.58101600      -2.24829100       4.00176481       4.47644254      -2.45307860
Si       4.48145000       2.18337000       8.34202000      -5.72220500      -5.96162700      -4.99603400      -5.36644345      -5.84942409      -5.41941358
Si       6.36439000       4.54151000       2.12641000       2.28764700      -2.33178900       1.39384200       2.69128048      -2.28392080       1.25885150
Si       4.52267000       6.51460000       3.75633000       0.42177200       5.22743800       1.25328700       0.15668389       5.36605208       1.20549447
Si       7.68278000       0.22257000       3.11016000      -0.17295300       4.89916800      -3.86478000      -0.07674195       4.78262041      -4.01400075
Si       7.35363000       3.38410000       6.13231000       4.40786200       1.27045000       2.62604800       4.18112593       1.25938302       2.91339487
54
Lattice="8.579999685 0.0 0.0 0.0 8.579999685 0.0 0.0 0.0 8.5799996" Properties=species:S:1:pos:R:3:REF_forces:R:3:MACE_forces:R:3 config_type=Fe34B10Si10 REF_energy=-354.71875992 MACE_energy=-354.8586483060667 pbc="T T T"
Fe       0.43313000       1.19321000       2.96848000       1.47291300       2.99028000       0.61180900       1.84469507       3.14034471       0.56901553
Fe       0.91365000       1.12516000       8.09995000       2.76260400      -2.00335600       1.20968300       2.89117695      -2.06937161       1.31682235
Fe       1.17142000       2.67870000       5.23446000      -1.90323000       6.04651700       0.58026800      -1.46310870       5.96476423       0.41431254
Fe       0.60772000       3.85484000       0.87278000       2.66909500       4.89444800       4.53699300       3.75752808       6.68113334       6.35280337
Fe       1.41565000       3.44858000       3.01161000      -0.29549500       2.03729500      -0.74017400      -0.10899813       2.06546307      -0.76977666
Fe       0.04226000       2.91249000       8.09734000      -3.39897200      -2.84207300      -2.69442200      -4.36746578      -4.14442530      -4.90189560
Fe       1.33282000       7.09057000       5.22634000      -0.45239700      -1.35392500       0.92503500      -0.07829724      -1.40982243       0.82087160
Fe       2.06045000       7.92051000       0.98063000      -3.11321000      -0.30108300      -2.49280600      -3.77764883      -0.68854942      -2.97955818
Fe       2.03627000       8.24295000       3.50701000      -1.42216600       4.38122900       0.88517600      -1.59878439       4.19527534       0.69609440
Fe       0.01253000       8.02686000       7.00667000       2.58679700       0.98610200     -11.80201700       2.32816957       0.78517872     -12.33574438
Fe       3.00353000       0.57289000       6.13981000      -1.03922300       0.18357300       0.93137300      -0.85604393       0.22013016       1.06191255
Fe       3.69949000       2.65196000       7.51811000       2.76433000      -4.34399200      -3.80269000       2.58818519      -4.20792253      -3.92180156
Fe       2.94478000       6.44154000       3.03987000       7.21319500      -3.66655800      -1.17614100       6.91176619      -3.38626486      -1.20828322
Fe       2.94309000       5.75189000       6.64956000      -6.24071800      -0.74678300       3.86021800      -6.55003951      -0.66441895       3.83966400
Fe       3.71160000       8.39321000       1.86324000       2.24845700      -0.43546600       0.28887200       3.06684960      -0.10936027       1.15432094
Fe       4.07810000       8.43915000       4.32840000       2.88035800       1.28304800      -0.49181300       2.93519746       1.28243811      -0.82766192
Fe       5.57499000       0.73262000       6.31633000      -3.12774100      -1.68249800      -0.98058200      -3.54993911      -2.18817682      -1.10688078
Fe       4.70712000       1.94493000       1.65492000      -2.04675700       4.97917500      -3.67899600      -2.22574700       4.64086893      -3.28459631
Fe       4.73401000       4.18392000       1.24748000       0.71501700       1.80608500      -0.06999200       0.62356411       2.02522497      -0.18683523
Fe       4.56687000       4.22266000       4.39618000       0.73801700       3.32591500      -2.10569900       0.25640940       3.07174428      -2.06100177
Fe       4.51224000       4.61167000       7.05684000       2.53211900      -0.41024200       0.53825400       3.01646382      -0.69978073       0.61298934
Fe       6.32808000       6.81945000       4.24288000      -3.20445400      -0.33519400      -1.28892300      -2.60583574      -0.27665201      -1.21008321
Fe       6.22240000       7.17309000       0.16230000      -3.30904600      -2.75215800       1.90373500      -2.96048114      -3.11066179       2.10999679
Fe       4.54224000       7.44382000       7.03838000       0.17895600      -5.02037800      -8.74618400       0.13704314      -6.51786724     -10.40937239
Fe       4.73272000       8.55832000       8.35561000      -0.10588400       8.96287400       6.54083400      -0.62200014      10.74414860       7.45381307
Fe       7.67285000       2.82429000       2.17742000      -2.12886900      -0.76272600      -2.06587500      -2.11195292      -0.62008589      -1.72321185
Fe       6.74071000       1.77406000       4.33655000       0.47479500       0.50025500      -0.42349800      -0.07080660       0.31780619      -0.45455748
Fe       7.16362000       1.61896000       6.68131000       5.11373900       1.83737400       0.70818800       5.45401254       2.02843682       0.93117512
Fe       6.73653000       4.13840000       7.84564000       0.19062300       0.32905600       3.59274800       0.15252561       0.40735632       3.42387720
Fe       6.61248000       5.35948000       2.44590000       0.96755600      -0.77403900      -0.47053600       0.80501887      -0.64655451      -0.33246130
Fe       8.39074000       4.95678000       4.82580000       0.50677700       3.21370700       1.22596300       0.39320496       3.08088754       0.91390837
Fe       6.62275000       6.29700000       6.29237000       0.91106900      -0.58785400       1.74696000       0.80336792      -0.50484219       1.48399422
Fe       8.00875000       8.14674000       2.12563000      -1.25903800      -1.94608200      -3.37077000      -1.02480793      -1.97325757      -3.98923906
Fe       7.96861000       8.10559000       4.08816000       1.24434400       0.03207600       4.40361200       0.61094201      -0.13562865       5.05124500
B        3.14587000       1.61638000       2.59818000      -3.96044800      -1.57388800      -2.24367700      -3.91233518      -1.42915296      -1.91415544
B        4.07212000       1.93087000       3.78701000       0.55534200       0.12762300      -3.25123200       0.43399894       0.31616128      -3.04422322
B        2.24412000       1.90783000       4.05913000      -1.80380000      -9.70850100      -5.48536600      -1.60286620      -9.65455506      -5.30067574
B        2.90130000       3.06657000       4.45062000       2.48509300       7.60479000      -1.50334300       2.67245204       6.79512026      -1.58675985
B        2.82587000       3.80138000       5.80651000       0.21675600       2.27927400       3.92227300       0.22971808       2.40224016       4.03116448
B        2.60929000       5.04297000       1.66311000       0.12617300      -0.77075900      -0.46531300       0.04980745      -0.82974328      -0.30629309
B        2.47198000       4.95014000       4.32601000      -0.76752800      -1.31946700       0.35153300      -0.73468826      -1.41430154       0.62910543
B        2.73354000       7.81887000       7.66829000      -1.47869400      -0.15377200       0.00458000      -1.46663779      -0.01594183       0.37084953
B        5.68071000       2.28134000       7.79544000      -0.95924500       0.41857400       1.11780500      -0.83958790       0.38244984       0.97091953
B        7.77536000       3.70665000       3.76574000      -0.44877700      -1.48394500      -0.38974400      -0.35234502      -1.44810210      -0.15152420
Si       0.79518000       0.92195000       5.77957000      -1.66645900      -4.94136200      -1.10925300      -1.64181829      -4.81827227      -1.08127235
Si       0.88055000       4.20706000       6.73551000       1.15626000       3.58432200      -0.32349000       1.21429034       3.65384077      -0.34382926
Si       1.15025000       6.44729000       2.43826000      -7.77651300      -1.83655100      -1.54918700      -7.75764168      -1.66476653      -1.72061117
Si       2.82820000       3.29548000       0.50208000      -4.05499500       1.58525200       5.32597100      -3.90466633       1.28531063       5.24210778
Si       4.14031000       6.38272000       0.30005000      -2.16949800      -2.44928300       2.57761000      -2.38389966      -2.37515925       2.37196050
Si       3.68345000       6.43010000       5.01209000       3.98893100       0.98565200      -2.13453700       3.78062340       1.20126559      -2.17834150
Si       5.73751000       0.59059000       2.53265000       5.08228400      -4.90021500       2.23852200       5.06702507      -4.85589841       2.53258560
Si       4.51163000       2.47994000       5.36819000       2.60737700      -2.86786400       7.12589500       2.58203565      -2.64328536       6.78893635
Si       6.43436000       3.75222000       5.86206000       1.38008400       0.66155200      -3.64612400       1.56428199       0.67611687      -3.44991582
Si       8.06432000       7.52318000       8.55473000       2.36409700      -3.06603600      11.34847700       2.39808998      -2.86088538      11.63611696
18
Lattice="6.5 0.0 0.0 0.0 6.5 0.0 0.0 0.0 6.5" Properties=species:S:1:pos:R:3:REF_forces:R:3:MACE_forces:R:3 config_type=Fe12B3Si3 REF_energy=-113.87843945 MACE_energy=-113.77407072087362 pbc="T T T"
Fe       5.40234000       5.43492000       1.53729000      -1.39532100       2.04028400       0.71142300      -1.57258917       2.06149563       0.83217505
Fe       2.09750000       2.10361000       0.54730000       2.35673700      -0.33103000       1.27254800       2.47185326      -1.02426689       3.10526797
Fe       2.84360000       1.73250000       3.81271000       2.28004000      -1.18251600      -0.27344700       2.49777158      -1.21769181      -0.16998681
Fe       0.77541000       4.93717000       1.04317000       1.56096300      -3.83372900       1.76362000       1.64643141      -3.53156728       1.60223141
Fe       0.07665000       3.70431000       3.74351000      -0.75952900      -0.39175400      -2.23189700      -1.17211078      -0.45572286      -2.22768485
Fe       4.77171000       3.58949000       4.78220000      -1.99219600      -4.62409700       0.48420500      -1.67432426      -5.17069541       0.31222055
Fe       4.12430000       1.49867000       1.46476000       0.29771700      -2.38794700       0.28396300       0.18778571      -2.48822962       0.27321596
Fe       0.95387000       5.17746000       5.28728000      -0.57085000      -0.50160400      -1.80733600      -0.92229347      -0.49095011      -1.45363624
Fe       1.93602000       3.09888000       2.36598000      -0.08855100       0.43128300      -0.27209000      -0.11319828       0.61992024      -0.45418518
Fe       5.69037000       1.28357000       4.20026000      -0.40866000      -0.49067900       0.18976600      -0.91143683      -0.44277993       0.22139194
Fe       1.94321000       2.86141000       5.39871000      -0.55906500       0.73218900      -1.80086600      -0.62551573       1.56692711      -3.67031093
Fe       4.33122000       5.38124000       5.25469000      -0.73272900       4.56545400       1.52017900      -0.71392487       5.07213392       1.74911416
B        0.37598000       1.64060000       1.21420000      -3.21263000       2.85095800       0.76078000      -2.42184315       2.70310588       0.44487954
B        1.88110000       4.04794000       3.96741000       2.48956600       2.45119300      -0.32261600       2.61957352       2.21429522      -0.22031159
B        3.63878000       0.94242000       5.41981000      -0.01444500       0.67937600       0.95779200      -0.04673869       0.77998128       0.89196910
Si       1.19380000       0.26963000       0.19686000       0.54051800       0.24528300      -1.93219100       0.64825644       0.13978381      -1.72776981
Si       4.57825000       3.47658000       1.16117000       0.15934200       1.26766700      -0.81102600       0.08795395       1.34009836      -0.86489544
Si       1.09558000       0.76720000       2.75124000       0.04909300      -1.52033200       1.50719200       0.01434936      -1.67583752       1.35631517
54
Lattice="8.579999685 0.0 0.0 0.0 8.579999685 0.0 0.0 0.0 8.5799996" Properties=species:S:1:pos:R:3:REF_forces:R:3:MACE_forces:R:3 config_type=Fe34B10Si10 REF_energy=-356.0869274 MACE_energy=-356.3340395595815 pbc="T T T"
Fe       0.92877000       1.08311000       2.12831000      -0.53214900      -1.15432400       0.53007800      -0.67177192      -0.99119191       0.47516530
Fe       1.12794000       0.45096000       7.37327000      -2.86345100       2.18226700       1.45805300      -2.74909658       1.94879434       1.23586385
Fe       0.91289000       3.61082000       1.96264000      -1.66570100       0.50807500      -4.76654600      -1.93468530       0.39203892      -5.36251007
Fe       0.97242000       3.25012000       3.83975000      -0.85629000      -1.23507100      -0.91491200      -1.14544429      -1.57009810       0.44499752
Fe       1.43574000       3.84332000       5.84621000      -1.94378300      -0.72872400       4.94145300      -2.31762257      -0.80752981       5.10308378
Fe       0.45897000       5.99881000       1.32384000       1.86679900       1.45939200      -0.33976700       1.70088498       1.46627301      -0.10015464
Fe       0.05714000       6.25044000       6.01250000       0.66851500      -0.88142700       1.67028200       0.58089967      -0.71948656       1.62006115
Fe       1.87526000       7.05991000       7.27744000      -5.90957000       6.81146600       5.95768600      -5.58536624       7.15537724       5.58012871
Fe       4.21220000       0.80536000       3.81626000       0.44958900      -1.97725700       0.54591300       0.29138891      -1.69475630       0.43386509
Fe       2.64196000       0.75311000       5.88605000       0.80305000      -0.92688600      -1.50973400       0.36766390      -1.05126373      -1.37221108
Fe       2.51735000       4.27963000       7.86001000      -0.17185400       2.88247300       0.00075600       0.16187018       2.78513560       0.17730163
Fe       2.46175000       4.76211000       4.38544000       2.27245000       6.36429500      -0.60000700       2.62751149       6.55004141      -1.04435808
Fe       3.99132000       4.46692000       6.09268000      -0.21521200      -1.96607600      -0.25853400      -0.31706337      -2.47855239      -0.30095051
Fe       4.03283000       6.20484000       2.50717000       0.32509400      -1.83048700       1.07686200       0.40237985      -1.97517194       1.03974022
Fe       2.62183000       8.12097000       1.25125000      -5.45108600      -1.04608100      -0.88869000      -5.80243773      -1.12636444      -1.15132151
Fe       2.34208000       7.49949000       3.33705000      -1.45221900       0.10179900       1.96325000      -1.35412267       0.04799835       1.68633675
Fe       4.67554000       0.98699000       8.35162000       1.97529500       0.95938300       0.07305200       1.52286213       0.75593712       0.21423264
Fe       4.68615000       2.28426000       1.60336000       6.03713100       4.39249100       1.56082500       5.70869463       4.04764316       1.12704790
Fe       4.95897000       4.28949000       0.91503000       1.24258400       3.77490300      -1.07876200       0.88405963       3.57332721      -1.28254166
Fe       5.62605000       3.84953000       3.25301000      -4.56775200       3.43217100       2.09526400      -5.25631105       3.70285990       2.64422684
Fe       5.63153000       5.70233000       4.67966000       0.04558900       0.36352900      -0.74034800       0.02436411       0.06996255      -0.64058255
Fe       5.00954000       6.14620000       6.89198000       4.51113600      -2.60361300       1.43664400       4.56914573      -2.45004622       1.66180409
Fe       5.34723000       7.32984000       0.56425000       3.41130600      -7.55812200      -7.44238600       6.65234168     -10.46980885     -11.74775263
Fe       4.57141000       8.20633000       1.67615000      -2.51651100       6.57056000       9.11650700      -5.57015999       9.68042824      13.34691851
Fe       5.67084000       7.83697000       6.02451000      -0.02983000       3.57151200       0.33120700       0.13259984       3.70977849       0.31455852
Fe       7.65837000       1.05332000       0.64336000       1.95813700       2.93603900      -3.62028800       1.80343414       2.82900430      -3.40596372
Fe       7.23579000       1.49494000       3.62009000       0.88838800      -1.50203300       3.00240400       0.90847475      -1.63082993       3.01279194
Fe       6.96409000       1.59543000       6.70415000       0.40175100      -2.57633900      -0.54943900       0.50794920      -2.51697987      -0.69614155
Fe       6.97946000       3.05325000       2.27831000       3.01329100      -2.85779700      -7.80747400       3.26809742      -3.44176922      -7.58754989
Fe       7.05854000       3.62734000       7.13255000       0.94483300       2.42104600       2.56329500       1.10070939       2.51983362       2.50535446
Fe       7.47490000       4.49325000       0.92243000      -3.13561000       0.06366500       0.11142200      -2.62929698       0.61552658      -0.39171095
Fe       7.76499000       5.40883000       4.05655000       3.42051700      -2.49950500       1.10150300       3.55507840      -2.86480156       1.33592038
Fe       6.91686000       6.16423000       2.38917000      -4.34160700       0.52717700      -3.24358900      -4.57855871       0.69092394      -3.41130954
Fe       7.31773000       7.39473000       4.73130000      -1.41907300       3.06948200       1.38572900      -1.47042160       2.96989962       1.38129504
B        1.63947000       5.44017000       2.85377000      -1.37965300       1.67099600      -0.34434500      -1.32265704       1.60219734      -0.44883663
B        3.47444000       1.29905000       1.69513000      -6.04542900      -7.46227000      -1.52467000      -5.67849725      -6.54378183      -0.79880898
B        2.31673000       1.42955000       3.77944000      -1.85652800      -2.14982900       3.21956500      -1.63545552      -1.77862455       3.42913806
B        3.17088000       0.01260000       8.16689000      -2.14308300      -0.12737100      -3.63430700      -1.68544263       0.18583186      -3.30892145
B        2.48887000       2.23189000       2.44876000      -1.30373000       3.96631200      -0.94871100      -0.82237311       3.69368597      -1.37782141
B        3.55016000       3.21990000       0.17024000       2.13469500      -3.52588700       0.23974700       1.96597965      -3.23865204       0.20090540
B        3.12966000       3.07291000       4.24572000      -6.99085300       0.34377600      -0.16579100      -6.57864489       0.12925785      -0.17755266
B        2.38358000       5.95301000       6.34325000       2.25901800      -8.76611800      -6.31465800       2.00552615      -9.07562747      -6.24974821
B        4.46260000       2.62992000       4.23823000       7.08507900      -1.75449200       0.40993300       6.79105742      -1.78516419       0.20784022
B        7.51183000       3.59374000       3.85724000       1.49621300      -1.20378300       3.39561400       1.66190357      -0.86715559       2.97093239
Si       0.50050000       1.66927000       5.10425000      -1.02554400      -2.67263500       2.61432900      -0.67632106      -2.81487416       2.63236325
Si       0.41923000       4.50138000       8.15701000       0.82744200      -0.47721100      -2.57541600       0.97281298      -0.47125938      -2.83927031
Si       2.90131000       4.25049000       1.93860000       2.71957100       0.04497600      -0.88170100       2.80754727       0.03709512      -0.98305725
Si       3.74353000       6.85388000       5.19884000      -1.20766000       1.80214700      -2.20114300      -1.15618940       2.03077318      -2.05809234
Si       3.54209000       6.47938000       8.21357000      -0.45014500      -1.75854100       4.24377300      -0.58774330      -2.16681645       4.63694548
Si       4.55252000       1.74669000       6.40118000       0.28733400       0.20348600      -1.69136000       0.13966644       0.22394223      -1.50571531
Si       5.87020000       3.30923000       5.41310000       1.93974000       0.55942400      -1.14043100       1.47171091       0.79398472      -1.11378576
Si       6.68392000       0.09389000       2.07850000      -2.78148600      -1.30329400       2.70552900      -2.48914743      -1.14877670       2.65201630
Si       7.30980000       7.36953000       0.08595000       4.18267400      -0.22507900      -1.67891000       4.37519027      -0.49299555      -1.76787924
Si       8.41387000       7.50606000       2.97540000       5.08859000       1.78741200      -0.88875800       5.05302594       1.96482684      -0.94628755
54
Lattice="8.579999685 0.0 0.0 0.0 8.579999685 0.0 0.0 0.0 8.5799996" Properties=species:S:1:pos:R:3:REF_forces:R:3:MACE_forces:R:3 config_type=Fe34B10Si10 REF_energy=-359.84864784 MACE_energy=-359.52703382024896 pbc="T T T"
Fe       0.39531000       2.37288000       0.87042000       3.27925500       2.43832800      -1.60261100       3.19245564       2.70245810      -1.53743710
Fe       0.75383000       1.65209000       3.11094000       1.30783500      -0.34615400      -0.09267000       1.20693337      -0.78666446       0.22049728
Fe       1.33201000       3.79282000       7.26231000      -2.40668100      -1.18131200       0.32245500      -2.64608088      -1.31842243       0.43173544
Fe       0.64436000       4.41396000       2.97573000       2.42004200      -2.26182600       0.38963900       2.51862502      -2.09015175       0.38910634
Fe       0.14751000       6.42079000       3.51005000      -3.07002100       1.32407200      -2.30638400      -3.18767232       1.27133645      -2.43549659