15
Lattice="5.664536 0.0 0.0 0.0 5.664536 0.0 0.0 0.0 5.664536" Properties=species:S:1:pos:R:3:REF_forces:R:3:MACE_forces:R:3 config_type=Fe13Si1B1 REF_energy=-107.24392179 MACE_energy=-91.89080469691731 pbc="T T T"
B        4.55451000       2.71009000       4.53374000      -1.84241600       0.12273000       0.97605400      -0.12327602      -0.09815054       0.01183867
Si       4.96592000       1.35098000       3.17084000       0.03645700      -1.26959800      -1.72248200       0.00580627      -0.07684918      -0.02856298
Fe       0.76780000       2.71999000       4.50203000       0.99104400       1.22663600      -0.25483400      -0.09326693       0.20544278      -0.05076184
Fe       4.49381000       4.27144000       0.00500000       0.12771300       0.55300800       1.95499500       0.04325677       0.08191101       0.24240159
Fe       2.51506000       2.85470000       0.39067000       2.30796400      -0.07906800      -0.90014700       0.21709310      -0.04623110      -0.08585019
Fe       1.54798000       0.63209000       4.30335000      -0.41721700       1.31634800       0.94065600      -0.02941346       0.07454536      -0.12290075
Fe       1.57550000       5.22422000       0.43710000      -0.36283300      -2.19107200      -1.65623800      -0.05248758      -0.19748772      -0.08320857
Fe       4.96774000       1.70667000       0.72272000      -0.02265400       0.17856400       0.52883500      -0.00635613       0.11082324       0.13026881
Fe       2.90512000       2.71313000       3.39557000      -0.58520000       0.47465300      -1.14426300      -0.09603765      -0.01619820      -0.09957865
Fe       4.70661000       4.56393000       3.57972000      -0.83607700       0.67294800      -0.44540600      -0.13044986       0.09812103      -0.08824822
Fe       3.01952000       5.58310000       2.04014000       4.08588500      -0.29222400       0.48578400       0.36042563       0.03291798       0.06751096
Fe       1.03216000       3.15651000       1.69807000      -1.92540100       0.16669000      -0.01219500      -0.10590098       0.03575196       0.02041614
Fe       1.06159000       4.85855000       2.89660000      -1.39241900      -2.73695900       0.94700400      -0.00697636      -0.18274951       0.06573823
Fe       1.32246000       1.04627000       1.93989000      -1.17472900       3.57842300      -0.16514300      -0.04923904       0.23550307       0.03364465
Fe       3.48550000       0.95436000       4.93839000       1.00988400      -1.72107900       0.46738000       0.06682224      -0.25735018      -0.01270785
15
Lattice="5.664536 0.0 0.0 0.0 5.664536 0.0 0.0 0.0 5.664536" Properties=species:S:1:pos:R:3:REF_forces:R:3:MACE_forces:R:3 config_type=Fe13Si1B1 REF_energy=-106.6978718 MACE_energy=-92.04874530400869 pbc="T T T"
B        4.37602000       3.06287000       4.54969000      -3.95359300      -0.44382100       1.29634400      -0.00062837       0.17625930      -0.03396606
Si       1.65988000       0.39408000       0.41607000      -1.82881400      -0.97563400      -0.52171500      -0.16038854      -0.06726405      -0.00913912
Fe       0.17468000       3.64106000       3.97541000       3.52115100       2.11680500      -3.70241700      -0.06390331      -0.03121289      -0.24906410
Fe       3.99662000       4.13119000       2.33108000       0.27141100      -0.00984000       0.73103200       0.08244040      -0.09129038       0.13704201
Fe       1.83468000       4.84243000       2.97817000       1.11127300       1.20450800      -0.82025900       0.13988902       0.06453808      -0.00636818
Fe       4.31221000       5.64316000       4.08977000      -1.21997300      -0.08898100      -1.00559200       0.01006687      -0.07212240       0.02666187
Fe       4.00188000       1.79872000       3.05317000       1.51415600      -0.19476200       0.54247900       0.13244878       0.04099439      -0.07938945
Fe       0.28332000       0.54321000       2.11203000      -1.20445600      -0.05724300       0.78298300      -0.20501152       0.07137922      -0.09105730
Fe       2.04952000       2.34144000       2.71705000      -1.17771800      -0.15950800      -3.19997700      -0.08858922       0.11118184      -0.30271893
Fe       0.52847000       2.51099000       0.27749000      -1.54476400       0.22909900       3.45437000      -0.03531420      -0.05516728       0.28897434
Fe       3.58006000       0.29982000       1.02879000       2.20061000       0.80437000       1.76997400       0.01968166       0.08009805       0.05411694
Fe       3.94497000       2.58517000       0.68762000      -0.78968200      -0.85970600       1.11781900      -0.13019978      -0.01738717       0.11636092
Fe       2.22039000       3.16559000       4.70761000       2.57283600       0.55467500       0.75976100       0.27449814       0.09017321       0.07748641
Fe       0.91954000       1.26700000       4.28105000      -1.26251500      -1.19639100      -2.25143600      -0.15684563      -0.20769894      -0.07473934
Fe       5.06813000       4.79731000       0.17338000       1.79007700      -0.92356900       1.04663300       0.18185570      -0.09248100       0.14580000
15
Lattice="5.664536 0.0 0.0 0.0 5.664536 0.0 0.0 0.0 5.664536" Properties=species:S:1:pos:R:3:REF_forces:R:3:MACE_forces:R:3 config_type=Fe13Si1B1 REF_energy=-631.90671415 MACE_energy=-91.9437195192651 pbc="T T T"
B        2.39909000       4.80306000       2.39586000       0.15091500       3.42831000       2.66407400       0.16488050      -0.19118114      -0.17775938
Si       0.93053000       2.35896000       2.55713000       0.99763900      -3.93734300       3.17963300      -0.10224877       0.02608137       0.02891410
Fe       0.03471000       3.59515000       5.47725000       1.88747300      -7.74285900      -7.11958500       0.03225202       0.08246270      -0.01032197
Fe       4.74993000       4.02388000       2.22528000      -2.66422000       2.18549900      -2.97641100      -0.07245908      -0.13921599      -0.20575354
Fe       2.56765000       3.21929000       3.98483000      -2.71008400       2.38929400      -9.84525000      -0.07647120       0.08491398      -0.13957376
Fe       4.56553000       1.24292000       1.41529000      -1.42379200      -5.50185400     -24.41161800      -0.02415041       0.09585884      -0.11595928
Fe       2.58268000       4.96858000       5.63402000      -2.57484200       6.67441700      -8.09274800      -0.09012435       0.14940369       0.05842441
Fe       2.57294000       0.79172000       2.65613000      -8.33543900       0.26935600      -0.00977300      -0.08175072       0.32635509       0.06127289
Fe       0.21829000       0.42035000       4.97786000       5.16993300      29.35098100      46.22827100      -0.16042898      -0.11992045      -0.08762785
Fe       3.85668000       5.30592000       3.71065000       0.25671300       0.21689800      -2.50037900       0.21816166       0.02462672       0.11485843
Fe       4.40135000       1.98927000       3.54360000       4.73428800      -3.43124900      12.48961600       0.22386073       0.02909867       0.15731578
Fe       0.76701000       4.75830000       2.94205000       6.97102600       2.12799900       3.77383600      -0.10317581      -0.12718224       0.26421289
Fe       1.68294000       1.83497000       4.97008000      -9.29271200      -7.33132800      -6.30259300       0.05353297      -0.10692088      -0.02046669
Fe       2.61300000       3.08267000       1.17263000       0.59653000      -8.61029800      -6.68625000       0.06433211      -0.17682692       0.10733600
Fe       0.91492000       0.26448000       1.28365000       6.23657300     -10.08782200      -0.39082200      -0.04621066       0.04244657      -0.03487202
15
Lattice="5.664536 0.0 0.0 0.0 5.664536 0.0 0.0 0.0 5.664536" Properties=species:S:1:pos:R:3:REF_forces:R:3:MACE_forces:R:3 config_type=Fe13Si1B1 REF_energy=-111.64761788 MACE_energy=-92.53618459424943 pbc="T T T"
B        5.32248000       0.08851000       0.29220000      -0.16202200       0.12158600       0.18218200      -0.00669386       0.02070196      -0.00315500
Si       1.24306000       4.25251000       4.47844000      -0.12576500      -0.02362200      -0.13582400      -0.02830985       0.01363059      -0.01746878
Fe       5.57259000       5.54993000       2.76192000       0.02289600      -0.01120700       0.06651300       0.08353215      -0.05269858      -0.05012272
Fe       5.46310000       2.40296000       5.66088000      -0.50094400       0.49878600      -1.40155500      -0.00008430       0.15410546      -0.12942887
Fe       5.63215000       2.77895000       2.93054000       0.22462000      -0.24337100       0.12596400       0.08979944      -0.01522712       0.03150422
Fe       2.98784000       5.57903000       5.48262000      -0.07939200       0.44701900      -0.06334700      -0.07908663       0.06395055       0.09203204
Fe       2.68108000       5.54637000       2.88695000       0.78127300      -0.60227800      -0.20107400       0.06504401      -0.10768737       0.00414779
Fe       2.74390000       2.72454000       5.61090000       0.54430700      -0.39951100      -0.70438700       0.07923740      -0.01314108      -0.12326328
Fe       2.75417000       2.70517000       3.02064000      -0.34515400       0.22603300       0.10587100      -0.04475263       0.09700833       0.04388756
Fe       1.24772000       1.25396000       1.28565000       0.85676000      -0.23615800       0.19047400       0.13977680       0.00137474       0.07044433
Fe       1.25858000       1.14051000       4.21221000      -0.24096100      -0.01065900       1.31645300      -0.01666837      -0.03819486       0.18784325
Fe       1.39382000       4.00916000       1.37655000      -0.48122800       0.41047600      -0.13775700      -0.10276181       0.08773951      -0.11777334
Fe       4.14210000       1.44115000       1.54175000      -0.40916400      -0.12126600       0.03510200      -0.07202821      -0.07343129       0.00275670
Fe       4.32368000       4.17494000       1.38284000      -0.28548900      -0.53792600      -0.73359100      -0.11444918      -0.13300534      -0.05518635
Fe       4.42883000       4.20456000       4.36915000       0.20026200       0.48209700       1.35497900       0.00744505      -0.00512551       0.06378245
15
Lattice="5.664536 0.0 0.0 0.0 5.664536 0.0 0.0 0.0 5.664536" Properties=species:S:1:pos:R:3:REF_forces:R:3:MACE_forces:R:3 config_type=Fe13Si1B1 REF_energy=-112.02748178 MACE_energy=-92.62821450129081 pbc="T T T"
Si       5.33293000       0.02003000       5.66326000       2.07368400      -0.40329400       0.50170800       0.07797988      -0.02322973       0.03600163
B        5.58387000       5.63228000       2.87073000      -0.15754500      -0.00234800       0.09017600      -0.04597932       0.07606091      -0.03026733
Fe       0.05362000       2.68426000       2.88744000       0.74089800       0.15522300      -0.00221500      -0.04077465       0.10978406      -0.00306349
Fe       2.83598000       5.57111000       0.09544000      -0.54291400      -0.42130900       0.75532300       0.02427779       0.06278171       0.00122085
Fe       2.82347000       0.00217000       2.81748000      -0.38177900      -0.05049100      -0.68265000      -0.05853681      -0.01181661      -0.06838222
Fe       2.67161000       2.81061000       0.05195000       0.16093800       0.53597000       0.06447400       0.07127859       0.08793313      -0.05185011
Fe       2.72099000       2.82161000       2.88960000      -0.79135900       0.09593200      -0.31152700      -0.06616353       0.00369414      -0.05219789
Fe       1.22962000       1.33763000       1.26219000      -0.51162400      -0.05665500       0.57969400      -0.08219202      -0.13210097       0.06669069
Fe       1.29952000       1.40044000       4.32043000      -0.48155200      -0.79155100       0.01508300      -0.05677089      -0.24622663       0.07574681
Fe       1.22877000       4.30875000       1.44744000      -0.83571400       0.37496900       0.22131100      -0.09306784       0.08176752      -0.02740080
Fe       1.21443000       4.40398000       4.40877000      -0.41061000      -0.05503300      -1.16014200      -0.06675952       0.01520672      -0.07848303
Fe       4.23170000       1.46982000       1.38205000       0.36983500       0.30671200       0.73513800       0.08397857      -0.02415308       0.03858681
Fe       4.23510000       1.29603000       4.28125000      -0.07179000       0.88723700      -1.17936800       0.01695524       0.04290101      -0.01341103
Fe       4.29811000       4.19350000       1.34056000       0.20721100      -0.40689900       1.36811800       0.08969182      -0.06502514       0.12906218
Fe       4.18208000       4.23366000       4.27420000       0.63232200      -0.16846300      -0.99512200       0.14608267       0.02242296      -0.02225309
15
Lattice="5.664536 0.0 0.0 0.0 5.664536 0.0 0.0 0.0 5.664536" Properties=species:S:1:pos:R:3:REF_forces:R:3:MACE_forces:R:3 config_type=Fe13Si1B1 REF_energy=-109.92929043 MACE_energy=-92.33180324741664 pbc="T T T"
Si       0.04545000       2.35657000       4.95092000       0.22361100       0.75878100       0.50691200      -0.05981455       0.05875186      -0.08471665
B        1.66105000       1.24622000       1.15025000       0.03949400      -0.01556500       0.11766900       0.08216942       0.00088005       0.06546437
Fe       3.67454000       5.30985000       0.07915000      -2.05486400       1.34021700      -0.31859200      -0.17148227      -0.05356046      -0.08119517
Fe       4.56102000       3.98153000       3.50446000      -0.10947100       0.09841100       0.56610500       0.07302838      -0.06342733       0.17754541
Fe       1.61300000       3.51369000       0.50216000      -0.95386500       0.52827800       1.62045700      -0.16392018       0.09280577       0.09367966
Fe       0.31613000       5.44729000       2.28105000       0.66815300       0.07352600      -0.58077200       0.07267181      -0.02457691      -0.04820332
Fe       3.37724000       2.48201000       1.92871000      -2.39528300      -1.61588800       1.58658300      -0.26604788      -0.09278626       0.18115065
Fe       5.57598000       2.18228000       2.23073000       2.30043600      -0.39226800       0.40400800       0.25281441      -0.06828659       0.12000340
Fe       3.15686000       5.27355000       2.33352000      -1.23556000       0.75277000      -0.30137100      -0.18691907       0.06153482      -0.04868044
Fe       1.66495000       1.24201000       3.84391000       1.09406500      -1.47046700      -1.10385700       0.09206344      -0.07182662      -0.19771033
Fe       0.37203000       0.02692000       5.44229000       1.44282200      -0.56542200       0.71094100       0.06810397      -0.08676566       0.11818440
Fe       3.26940000       2.58118000       5.17940000      -0.03443600      -0.67683100      -0.98370800       0.06057263      -0.06597474      -0.11278239
Fe       1.62290000       3.59180000       3.55017000      -0.06892500       0.65891400      -0.10757500      -0.04901105       0.05323101      -0.01631751
Fe       4.71244000       3.72602000       0.82660000       2.31109000       0.87590100      -0.15508000       0.23097000       0.20136503       0.04991854
Fe       4.42645000       0.81888000       3.99489000      -1.22726700      -0.35035700      -1.96172100      -0.03519907       0.05863604      -0.21634063
15
Lattice="5.664536 0.0 0.0 0.0 5.664536 0.0 0.0 0.0 5.664536" Properties=species:S:1:pos:R:3:REF_forces:R:3:MACE_forces:R:3 config_type=Fe13Si1B1 REF_energy=-107.74709495 MACE_energy=-92.1131557952319 pbc="T T T"
Si       3.61819000       0.16497000       3.31827000       4.81659900       0.87155900       2.07183400       0.29283727       0.04151238       0.00225060
B        2.78099000       1.44033000       5.06795000      -0.33568800       0.33311100       0.17286200      -0.03533469       0.01868455       0.03661789
Fe       0.01026000       4.82521000       4.87397000      -0.97931400      -0.82039800       1.01385000      -0.09618108      -0.01590799       0.07981267
Fe       3.04757000       4.21820000       2.02790000      -2.59509200      -3.68007900      -0.34037100      -0.16525060      -0.20196725       0.02700465
Fe       1.22081000       3.10806000       0.76960000       0.88232200      -0.75844600      -1.00179600       0.15167587      -0.10048027      -0.11176928
Fe       0.04407000       1.38996000       2.07509000       0.30745200      -0.15208900      -0.04651900       0.04356487      -0.03006107       0.00763007
Fe       3.71329000       3.97244000       4.26839000      -1.12959000      -2.92526500       1.02843500      -0.17305581      -0.12993371       0.01725156
Fe       1.56746000       5.50829000       3.59516000      -0.94820600       0.75468500      -0.20110000       0.06381221       0.12643199      -0.08032004
Fe       5.26019000       4.01407000       2.25142000       1.68154200       0.14696000       1.22714700       0.16391563       0.05737044       0.28107319
Fe       4.60941000       2.77636000       0.48199000      -1.55124300      -0.42907100      -0.36730200      -0.25429136      -0.02804395      -0.05214105
Fe       5.57269000       1.58992000       4.30745000      -0.90922900      -0.56870400       0.98111500      -0.11339396      -0.14312946       0.09300341
Fe       1.73936000       5.42432000       0.71839000      -0.83198600       2.15586600      -0.39330400      -0.08167452       0.22383673      -0.04733417
Fe       1.26546000       3.14257000       3.87510000       1.50703100      -0.39856000      -0.27241700       0.28617914      -0.07738774      -0.09569515
Fe       4.12422000       5.59581000       0.94451000       1.04745800       2.35552100      -2.38124300      -0.02454870       0.18303986      -0.12034203
Fe       3.10237000       1.84234000       2.35499000      -0.96205500       3.11491200      -1.49118900      -0.05825428       0.07603549      -0.03704232
15
Lattice="5.664536 0.0 0.0 0.0 5.664536 0.0 0.0 0.0 5.664536" Properties=species:S:1:pos:R:3:REF_forces:R:3:MACE_forces:R:3 config_type=Fe13Si1B1 REF_energy=-108.52016767 MACE_energy=-92.23264252362974 pbc="T T T"
Si       0.32015000       2.43073000       3.30808000       3.08672200       2.99894600       2.32439600      -0.00020625       0.03926718      -0.00647069
B        5.13054000       1.17047000       2.29847000      -1.92009400      -3.32685300      -2.90894100      -0.04904059       0.02284195       0.02204122
Fe       1.02100000       3.01547000       1.05001000       0.63615300       0.07572100      -1.01255900       0.09989946      -0.10679990      -0.11524298
Fe       3.63201000       2.69399000       1.05697000       0.08979200      -1.58315400      -0.74353900      -0.02000387      -0.18478307      -0.14121021
Fe       3.46626000       0.09771000       3.80907000       1.16596200       0.26713800      -1.10293600       0.26532395       0.00945184      -0.15826129
Fe       0.74758000       5.48597000       0.83875000      -1.20793300       0.38502700      -0.71551800      -0.13346700       0.07857867      -0.15696533
Fe       2.63345000       4.70748000       1.86394000      -1.00023900      -2.32465700       1.82284700       0.05790025      -0.25154617       0.14810221
Fe       1.88681000       1.06541000       2.28095000       0.01022100       1.65001700       0.38093300      -0.00584640       0.23792903      -0.00276294
Fe       1.83348000       1.41689000       4.63017000       0.18170100      -0.06839200       2.05184500      -0.06859616       0.04856333       0.23420494
Fe       5.07311000       4.02062000       2.27087000      -0.84521700       2.99975900      -0.67311000      -0.11174540       0.28321993       0.05101917
Fe       2.08651000       4.18940000       4.59314000      -0.51714200      -0.74808700       1.17148500      -0.19115069      -0.03122043       0.15966050
Fe       5.19794000       4.13105000       5.04473000      -0.49166600      -0.71909900      -0.80633600      -0.03479184      -0.18289428      -0.18426711
Fe       3.50731000       2.72831000       3.46738000      -0.09576100      -0.63173900      -0.22705700       0.16003751      -0.14533993      -0.02512461
Fe       5.08716000       1.33444000       4.92804000      -0.13848400      -0.06398900       1.14347100       0.04145216       0.11225420       0.03111220
Fe       3.72476000       5.54739000       0.48381000       1.04598400       1.08936400      -0.70498100      -0.00976514       0.07047764       0.14416491
15
Lattice="5.664536 0.0 0.0 0.0 5.664536 0.0 0.0 0.0 5.664536" Properties=species:S:1:pos:R:3:REF_forces:R:3:MACE_forces:R:3 config_type=Fe13Si1B1 REF_energy=-107.69587389 MACE_energy=-92.10352104386831 pbc="T T T"
Si       2.20343000       2.57200000       4.24927000      -3.18066900       2.68090800       0.43328100      -0.20127727       0.05598458      -0.00038029
B        0.80274000       4.27301000       2.13839000       0.49504300      -0.11895500       0.31534800       0.11327550       0.00868252       0.05145376
Fe       4.70271000       5.25002000       1.10346000       3.22214600       0.68803100       2.25849400       0.14970438       0.06893788       0.24538258
Fe       4.84847000       2.90808000       1.42619000       0.15106600       0.09906900      -0.33185600      -0.09703599       0.03118733      -0.09513389
Fe       5.40903000       3.10559000       4.40801000       0.14216000      -0.61964000      -0.32611100       0.13980215      -0.14535676      -0.00665779
Fe       0.75453000       1.51117000       2.37473000      -0.83817600       0.62585100      -1.07740400       0.03604887       0.08396833      -0.10264735
Fe       3.03584000       4.11179000       2.96254000       0.98063800       1.05815400      -1.58145900       0.04983181       0.04612045      -0.16693502
Fe       4.79604000       0.28132000       3.79112000       0.55765700      -0.86670800      -0.59578500       0.08605668      -0.13373388      -0.10142615
Fe       3.60636000       1.41845000       5.45376000       2.27987500      -0.10572900      -0.41138900       0.10313089       0.07835688      -0.07492811
Fe       3.17136000       1.58323000       2.73586000       3.73657300       0.58488900      -2.80265000       0.13607620       0.17283782      -0.10130532
Fe       3.66368000       4.36165000       5.31644000      -0.47589000      -1.65805500      -2.37160400      -0.04566932      -0.03213559      -0.15576224
Fe       1.99552000       3.15446000       0.58842000      -1.47342500       0.68324700       3.31797900      -0.13979117      -0.04782691       0.24326726
Fe       1.74607000       0.40881000       3.89355000      -0.29157100      -4.54571800       0.17425100       0.05521798      -0.25765461       0.03244406
Fe       0.68023000       0.78653000       5.58728000      -1.17724400       2.01068800       1.14192500      -0.05422886       0.24218643       0.06663349
Fe       2.62124000       0.13694000       1.13062000      -4.12818500      -0.51603100       1.85697900      -0.33114183      -0.17155447       0.16599500
15
Lattice="5.664536 0.0 0.0 0.0 5.664536 0.0 0.0 0.0 5.664536" Properties=species:S:1:pos:R:3:REF_forces:R:3:MACE_forces:R:3 config_type=Fe13Si1B1 REF_energy=-106.55639199 MACE_energy=-92.1435250923382 pbc="T T T"
Si       1.29232000       3.23497000       0.59711000       1.24133300      -2.14566900      -7.02031900      -0.07944326      -0.04785320      -0.13648076
B        5.62729000       1.61199000       4.40621000       0.45106500      -0.34422700      -0.13114600       0.01042728       0.16491114       0.05473533
Fe       2.87518000       4.34188000       1.73799000       1.25558200       1.07594200       0.38171500       0.00657619       0.05216171      -0.17334315
Fe       4.72827000       3.45927000       0.21933000      -3.39626300      -2.11706200       1.54026500      -0.19235079      -0.09416451      -0.08439019
Fe       1.93664000       0.16159000       2.96851000      -0.56682700       0.21873400       0.82197000      -0.07318580       0.10432737       0.02837704
Fe       2.61145000       2.01799000       1.49701000       5.06183800      -1.87565800       2.25089000       0.33884932      -0.02023518       0.02597619
Fe       2.19118000       2.35253000       4.51400000      -0.12589500      -1.14067900      -1.75913600      -0.08059975      -0.11655146      -0.08392162
Fe       0.43811000       4.11740000       1.95131000      -4.20274300       5.32014600       7.35630600      -0.10890566       0.16052616       0.22913574
Fe       4.04665000       3.20902000       3.24734000       0.29519600      -0.43418300      -0.04522900       0.15233937      -0.09760452       0.09674785
Fe       0.03252000       4.33521000       4.52858000       1.73689400       2.31167800      -2.71700100       0.15440749       0.04557135      -0.03404203
Fe       1.35248000       0.72671000       0.35211000      -1.47062700      -1.98920600      -1.77189700      -0.17979205      -0.12704956      -0.03321838
Fe       4.38414000       0.25293000       0.86256000       0.59775300       0.41112800      -0.57134200       0.16381911       0.00691807      -0.08922567
Fe       2.42533000       4.67788000       4.79909000       1.97176900       0.06143800       0.01451500       0.22157868      -0.07355505       0.12677843
Fe       4.34986000       0.29927000       3.26619000       0.04564100       0.05679200       0.28108400      -0.05686696      -0.11505180      -0.00638020
Fe       0.50512000       1.65100000       2.23771000      -2.89471400       0.59082500       1.36932500      -0.27685318       0.15764949       0.07925142
15
Lattice="5.664536 0.0 0.0 0.0 5.664536 0.0 0.0 0.0 5.664536" Properties=species:S:1:pos:R:3:REF_forces:R:3:MACE_forces:R:3 config_type=Fe13Si1B1 REF_energy=-106.80598508 MACE_energy=-92.11974886676373 pbc="T T T"
Si       4.73440000       5.62155000       2.79304000      -0.96276900      -2.81564000       4.11346800      -0.02112475      -0.10427184       0.20615629
B        3.05008000       1.40438000       5.09316000      -0.34710600      -0.45530300      -0.26817000      -0.02288753      -0.17682795      -0.10467896
Fe       5.37638000       4.40685000       4.66389000       0.55642000      -0.56561000      -0.05345300       0.03334853      -0.11139044      -0.06972832
Fe       2.96941000       3.85773000       2.31612000       0.32185900       0.74341000      -0.03176300       0.09730679       0.22726849       0.07832934
Fe       1.76520000       3.36398000       0.61472000      -0.57679700      -1.22889500      -1.07189700      -0.11202927      -0.16814372      -0.15163502
Fe       0.21745000       1.47727000       1.84511000       2.11944000       3.05189900      -1.65445800       0.09416830       0.13019752      -0.09637994
Fe       2.91565000       4.56908000       4.66304000      -0.41273000       0.25975000       0.14034400       0.06843851      -0.00520126      -0.03616404
Fe       1.40087000       0.06967000       3.67290000       1.14996100       0.35270400      -0.18884200      -0.02912345       0.09166327      -0.12774905
Fe       5.48285000       3.95385000       1.93746000       2.86369400      -3.44643900       0.14438600       0.10566727      -0.11079967       0.13509957
Fe       4.22368000       2.78203000       0.45864000      -0.59044700      -0.44863700      -0.87899300      -0.07260091       0.03482619      -0.07638248
Fe       5.38414000       1.66628000       4.25755000      -1.22249100      -0.31263400       2.27602400      -0.13300375      -0.05187797       0.18077977
Fe       1.50429000       0.07393000       1.23345000       1.16100500      -1.38667800      -1.36341000       0.19395192      -0.13915461      -0.09372653
Fe       1.26417000       2.87610000       3.57412000       1.61438200       0.38948000       0.30090200       0.16093939       0.03904872       0.09468765
Fe       4.15167000       5.27317000       0.73424000      -1.25715400       2.06600200      -1.71948600      -0.12889709       0.26761655       0.03262050
Fe       3.92164000       1.76519000       2.65194000      -4.41726800       3.79659000       0.25534700      -0.23415394       0.07704673       0.02877124
15
Lattice="5.664536 0.0 0.0 0.0 5.664536 0.0 0.0 0.0 5.664536" Properties=species:S:1:pos:R:3:REF_forces:R:3:MACE_forces:R:3 config_type=Fe13Si1B1 REF_energy=-110.95722017 MACE_energy=-92.41026818249738 pbc="T T T"
Si       5.24959000       5.41335000       5.22210000      -3.18672500      -2.50941600       3.21028200      -0.04144756      -0.05215256       0.18674756
B        4.88614000       5.28434000       2.86437000       0.07611800      -0.02073200      -0.08518000       0.01764228       0.14276907       0.01989468
Fe       4.72198000       2.20682000       2.63551000      -0.19580000       0.35209400       0.63221800       0.04313228       0.09390679       0.16763894
Fe       2.09763000       5.17297000       5.58441000      -0.39997800      -0.55088300      -0.28357000      -0.15971559       0.08774889       0.02329009
Fe       2.12982000       5.17037000       2.92428000       0.04506500       0.67927100       0.14281800      -0.00437328       0.17506773       0.05045239
Fe       2.12539000       2.50595000       0.00666000      -0.34073600       0.98414600       0.75177800      -0.09684738       0.17860469       0.14588560
Fe       2.01118000       2.35406000       2.72459000       1.14690800       0.79571400      -0.32838200       0.21036811       0.09547070       0.02800992
Fe       0.62552000       1.06616000       1.27893000      -0.30727600      -0.46129800       0.56787100      -0.05938018      -0.17531234      -0.04433198
Fe       0.63805000       1.13404000       4.24651000       1.39568100       2.66634300      -1.82695600      -0.01157416       0.01561771      -0.04230487
Fe       0.54076000       3.87560000       1.56692000      -0.45402900       1.01398100       0.06447900      -0.05183312       0.06183884      -0.06672629