54
Lattice="8.579999685 0.0 0.0 0.0 8.579999685 0.0 0.0 0.0 8.5799996" Properties=species:S:1:pos:R:3:REF_forces:R:3:MACE_forces:R:3 config_type=Fe34B10Si10 REF_energy=-352.89092233 MACE_energy=-353.3126705386122 pbc="T T T"
Fe       1.46495000       0.71583000       1.12880000       3.73230100      -3.41607500      -3.76209700       3.68862550      -3.52279413      -3.54631947
Fe       0.56244000       2.07917000       1.96452000      -3.31290700       4.06628900       2.54508600      -3.22190831       3.97121190       2.34866976
Fe       0.86636000       2.12990000       5.00906000     -10.85567700      -2.87102900      12.20968700     -10.94534528      -2.95455968      12.21938887
Fe       0.24697000       2.61233000       7.83061000      -0.37811800      -2.03816900      -0.08744800      -0.42182184      -1.90869508       0.08714228
Fe       0.35437000       4.66395000       8.16447000      -1.30300600       1.62250000       0.84662400      -1.32936727       1.61013946       0.77234664
Fe       0.83543000       8.00840000       3.01492000       5.54921000      -2.55787300       0.52513800       5.70691743      -2.53129136       0.38361627
Fe       2.03952000       7.84431000       6.63062000      -4.28706100       1.82495200      -1.68802900      -4.07212032       1.96322892      -1.64361129
Fe       3.34318000       0.11090000       2.96052000      -0.46571400      -0.35056300       0.37864800      -0.52510838      -0.22102908       0.47453967
Fe       3.26317000       2.11539000       1.48699000      -3.47884800      -0.03222100       0.61542300      -3.42282132      -0.30319872       0.16656024
Fe       4.14313000       2.75755000       3.31065000      -0.71378000      -2.73118300       1.93004800      -0.61496656      -2.40044232       1.85387128
Fe       2.55051000       2.67374000       7.19710000      -2.55215900      -0.93589000       1.77261600      -2.30112487      -1.14643352       1.71628007
Fe       3.61327000       2.86500000       5.46497000       1.55763200       0.20514300      -0.56676300       1.46334755       0.27340980      -0.27790992
Fe       2.62400000       4.72550000       1.39174000      -1.08585200      -1.19598700       0.59645400      -1.35111419      -1.01349777       0.69876613
Fe       2.20317000       5.21693000       3.87451000      -3.92870900      -4.38103900      -4.92199500      -3.85871183      -4.40096934      -4.97992540
Fe       3.93082000       4.37819000       8.08226000       1.07616800       0.44807800      -0.99700400       1.03317652       0.30157248      -0.91619238
Fe       2.44961000       7.01753000       1.08943000       0.32119000      -1.55635000       3.27006500       0.44708405      -1.63920209       3.26090267
Fe       3.02500000       6.15780000       5.08193000      -1.08486800       1.64126100       3.95415400      -0.64132526       1.64870677       4.04890422
Fe       5.77712000       0.44616000       0.16142000      -2.43333700       0.07175000       4.13474700      -2.47240135       0.40697183       4.22019386
Fe       5.66964000       0.14892000       2.95259000      -3.67617900       1.90971100       0.12919700      -3.64221660       1.65321045       0.31620661
Fe       5.39484000       2.66317000       1.55162000       4.08183700      -3.39937100       3.88213200       4.02447788      -3.64216124       4.02992181
Fe       5.91309000       3.40423000       8.31953000       8.90196200       5.48305700      -2.72562400       8.72933830       5.47024898      -2.72126873
Fe       4.96126000       4.63305000       3.41410000      -3.60269200      -2.00302700       2.25051900      -3.72863396      -2.22228294       2.37349992
Fe       5.11347000       6.81217000       1.78872000      -0.87770500       0.06714300      -1.61156800      -0.70381439       0.07279332      -1.56612113
Fe       5.00950000       6.45991000       8.24507000      -2.30619500      -0.19808200      -1.52355700      -2.27467294       0.01996811      -1.66731915
Fe       4.64263000       7.71190000       5.75084000       2.50156800       4.23919200      -1.55456800       2.61449208       4.25667512      -1.58897580
Fe       7.32285000       0.33022000       5.03535000      -0.99210900      -0.59745100       4.73628300      -1.02464960      -0.38621415       4.81593775
Fe       6.75330000       1.32958000       7.05071000       0.53851300       2.01290400       0.36400700       0.56519841       1.82499455       0.27906898
Fe       6.82686000       2.53028000       3.66692000      -0.08907100      -0.12987400      -0.26318300      -0.06659915      -0.21656134      -0.24655348
Fe       6.83617000       5.56618000       0.59386000       1.74434500       1.47371700      -3.32847200       1.80717811       1.62430780      -3.39825301
Fe       8.27091000       4.29855000       2.87718000       3.23308900       0.33980500       1.37352500       3.21253622       0.23289345       1.33492991
Fe       6.58774000       4.90718000       4.97515000      -1.87594500       0.58060600      -0.05143700      -2.13614769       0.60411528      -0.28026291
Fe       6.86773000       6.79187000       3.27473000       1.52763600      -2.76254700       0.67579100       1.39939634      -2.41043453       0.40404995
Fe       8.09083000       8.29691000       0.84396000      -4.18921500      -1.95965200       9.56442300      -4.21278463      -2.33400203       9.67389830
Fe       6.62133000       7.67903000       7.47205000      -3.65417600       1.51975600      -3.32990400      -3.88657487       1.22942071      -3.52015105
B        3.45077000       6.81738000       6.75435000       2.04131500      -2.79808300       3.80923700       1.90547947      -2.69693716       3.93221198
B        4.67436000       1.10514000       4.73414000       0.75036200       0.95391600      -0.52852700       0.82396808       0.87050275      -0.46476403
B        6.18153000       2.20088000       5.47737000      -4.49435700      -3.20609500      -2.27763700      -4.71012608      -3.15145617      -2.46777854
B        5.08133000       4.10197000       6.35983000       0.35152900       0.25548900      -0.65354500       0.58200949       0.33829758      -0.64816697
B        4.48663000       4.29393000       1.40792000      -0.27448100       1.04603100       0.21283300      -0.26841437       1.21586049       0.16028001
B        4.96286000       5.88068000       6.14703000       0.60492000      -1.85032800       0.29314600       0.64342807      -1.92188169       0.12292591
B        8.17242000       5.65216000       5.55863000       1.00443800       0.65677900      -0.69824300       1.02889497       0.75192865      -0.34310446
B        7.98743000       6.92663000       6.60530000       5.86774900       2.58695800      -4.05103700       5.84599553       2.52083186      -3.74300103
B        7.10769000       5.72812000       6.91109000      -2.33709700      -3.34606800       1.34633400      -2.34261688      -3.51734215       1.28803742
B        7.81665000       6.81498000       8.33858000       5.04350100      -2.41043400       0.97359300       5.17674815      -2.41220144       0.76074177
Si       0.06983000       0.14925000       7.74742000       4.12649000       2.60901100      -8.87608100       3.95570580       2.63702474      -8.86937013
Si       1.93337000       2.41223000       3.74634000      10.14534600       2.98113100     -12.18526000      10.23335035       3.11183455     -12.00992123
Si       0.75978000       6.02813000       1.69309000      -4.13401100      -0.74920300       1.02787300      -4.12884967      -0.86505586       1.03696250
Si       2.22023000       5.10313000       7.16329000      -1.58663400       1.19675500      -1.89967800      -1.78062380       1.17757725      -1.93658698
Si       3.27754000       8.17117000       8.35443000       4.04667900       4.58101600      -2.24829100       3.90895428       4.54107553      -2.47331662
Si       4.48145000       2.18337000       8.34202000      -5.72220500      -5.96162700      -4.99603400      -5.48874474      -5.82545561      -5.13647147
Si       6.36439000       4.54151000       2.12641000       2.28764700      -2.33178900       1.39384200       2.60346966      -2.24231030       1.25991529
Si       4.52267000       6.51460000       3.75633000       0.42177200       5.22743800       1.25328700       0.14766476       5.38960017       1.40471690
Si       7.68278000       0.22257000       3.11016000      -0.17295300       4.89916800      -3.86478000      -0.31076556       4.76797679      -3.98970445
Si       7.35363000       3.38410000       6.13231000       4.40786200       1.27045000       2.62604800       4.33693471       1.40003042       2.99056268
54
Lattice="8.579999685 0.0 0.0 0.0 8.579999685 0.0 0.0 0.0 8.5799996" Properties=species:S:1:pos:R:3:REF_forces:R:3:MACE_forces:R:3 config_type=Fe34B10Si10 REF_energy=-354.71875992 MACE_energy=-355.35945117936507 pbc="T T T"
Fe       0.43313000       1.19321000       2.96848000       1.47291300       2.99028000       0.61180900       1.61679731       2.98674182       0.31281793
Fe       0.91365000       1.12516000       8.09995000       2.76260400      -2.00335600       1.20968300       2.58417635      -2.16309821       1.12122529
Fe       1.17142000       2.67870000       5.23446000      -1.90323000       6.04651700       0.58026800      -1.68192485       6.30181991       0.60826688
Fe       0.60772000       3.85484000       0.87278000       2.66909500       4.89444800       4.53699300       2.66473919       5.10379925       4.27290685
Fe       1.41565000       3.44858000       3.01161000      -0.29549500       2.03729500      -0.74017400      -0.28726789       1.93586534      -0.67143922
Fe       0.04226000       2.91249000       8.09734000      -3.39897200      -2.84207300      -2.69442200      -3.11503942      -2.75307661      -2.51342316
Fe       1.33282000       7.09057000       5.22634000      -0.45239700      -1.35392500       0.92503500      -0.21104171      -1.49781190       0.81092235
Fe       2.06045000       7.92051000       0.98063000      -3.11321000      -0.30108300      -2.49280600      -3.23955967      -0.54087789      -2.33043303
Fe       2.03627000       8.24295000       3.50701000      -1.42216600       4.38122900       0.88517600      -1.52948426       4.19689373       0.55348014
Fe       0.01253000       8.02686000       7.00667000       2.58679700       0.98610200     -11.80201700       2.50956820       0.82702818     -11.92469187
Fe       3.00353000       0.57289000       6.13981000      -1.03922300       0.18357300       0.93137300      -0.71350879      -0.02291040       1.08361607
Fe       3.69949000       2.65196000       7.51811000       2.76433000      -4.34399200      -3.80269000       2.56926818      -4.14357443      -3.68804072
Fe       2.94478000       6.44154000       3.03987000       7.21319500      -3.66655800      -1.17614100       7.12071584      -3.36333492      -0.91671000
Fe       2.94309000       5.75189000       6.64956000      -6.24071800      -0.74678300       3.86021800      -6.60741182      -0.76223894       3.88133577
Fe       3.71160000       8.39321000       1.86324000       2.24845700      -0.43546600       0.28887200       2.35792945      -0.25111413       0.53009303
Fe       4.07810000       8.43915000       4.32840000       2.88035800       1.28304800      -0.49181300       2.94618583       1.48917225      -0.80818445
Fe       5.57499000       0.73262000       6.31633000      -3.12774100      -1.68249800      -0.98058200      -2.98989750      -1.73550647      -1.03468976
Fe       4.70712000       1.94493000       1.65492000      -2.04675700       4.97917500      -3.67899600      -2.14663685       4.82303627      -3.40104175
Fe       4.73401000       4.18392000       1.24748000       0.71501700       1.80608500      -0.06999200       0.71816213       2.00212700      -0.15316588
Fe       4.56687000       4.22266000       4.39618000       0.73801700       3.32591500      -2.10569900       0.61534129       3.50448888      -2.31367998
Fe       4.51224000       4.61167000       7.05684000       2.53211900      -0.41024200       0.53825400       2.99528151      -0.69779281       0.64951317
Fe       6.32808000       6.81945000       4.24288000      -3.20445400      -0.33519400      -1.28892300      -2.86011623      -0.31161443      -1.09043722
Fe       6.22240000       7.17309000       0.16230000      -3.30904600      -2.75215800       1.90373500      -3.55190604      -2.98153241       1.91968389
Fe       4.54224000       7.44382000       7.03838000       0.17895600      -5.02037800      -8.74618400       0.16030845      -5.31725885      -8.86613788
Fe       4.73272000       8.55832000       8.35561000      -0.10588400       8.96287400       6.54083400      -0.24669262       9.48165297       6.43079833
Fe       7.67285000       2.82429000       2.17742000      -2.12886900      -0.76272600      -2.06587500      -2.11520902      -0.69653705      -1.92321929
Fe       6.74071000       1.77406000       4.33655000       0.47479500       0.50025500      -0.42349800       0.14060256       0.53301472      -0.56537628
Fe       7.16362000       1.61896000       6.68131000       5.11373900       1.83737400       0.70818800       4.96708472       1.65725049       0.64406323
Fe       6.73653000       4.13840000       7.84564000       0.19062300       0.32905600       3.59274800       0.35097615       0.46331765       3.69302781
Fe       6.61248000       5.35948000       2.44590000       0.96755600      -0.77403900      -0.47053600       0.91387567      -0.76766492      -0.38028420
Fe       8.39074000       4.95678000       4.82580000       0.50677700       3.21370700       1.22596300       0.54441979       3.13886181       1.08974167
Fe       6.62275000       6.29700000       6.29237000       0.91106900      -0.58785400       1.74696000       0.85394500      -0.46418277       1.52734282
Fe       8.00875000       8.14674000       2.12563000      -1.25903800      -1.94608200      -3.37077000      -0.86903850      -1.96702208      -3.54236914
Fe       7.96861000       8.10559000       4.08816000       1.24434400       0.03207600       4.40361200       0.68923026      -0.04377335       4.64166093
B        3.14587000       1.61638000       2.59818000      -3.96044800      -1.57388800      -2.24367700      -4.10152809      -1.55497855      -2.21117956
B        4.07212000       1.93087000       3.78701000       0.55534200       0.12762300      -3.25123200       0.40194417      -0.04351160      -3.39241288
B        2.24412000       1.90783000       4.05913000      -1.80380000      -9.70850100      -5.48536600      -1.83663536      -9.88508760      -5.58698331
B        2.90130000       3.06657000       4.45062000       2.48509300       7.60479000      -1.50334300       2.77801006       7.06388676      -1.35253947
B        2.82587000       3.80138000       5.80651000       0.21675600       2.27927400       3.92227300       0.28018058       2.14089718       3.97041435
B        2.60929000       5.04297000       1.66311000       0.12617300      -0.77075900      -0.46531300      -0.04106993      -0.94422303      -0.47041165
B        2.47198000       4.95014000       4.32601000      -0.76752800      -1.31946700       0.35153300      -0.91805101      -1.12235902       0.33435337
B        2.73354000       7.81887000       7.66829000      -1.47869400      -0.15377200       0.00458000      -1.41477471      -0.12997470       0.10413988
B        5.68071000       2.28134000       7.79544000      -0.95924500       0.41857400       1.11780500      -1.05143287       0.37295589       1.11674060
B        7.77536000       3.70665000       3.76574000      -0.44877700      -1.48394500      -0.38974400      -0.49748477      -1.37786243      -0.18733373
Si       0.79518000       0.92195000       5.77957000      -1.66645900      -4.94136200      -1.10925300      -1.65170440      -5.09407325      -0.91629173
Si       0.88055000       4.20706000       6.73551000       1.15626000       3.58432200      -0.32349000       1.13515005       3.70678077      -0.28225064
Si       1.15025000       6.44729000       2.43826000      -7.77651300      -1.83655100      -1.54918700      -7.83396678      -1.65102712      -1.75363914
Si       2.82820000       3.29548000       0.50208000      -4.05499500       1.58525200       5.32597100      -4.14163562       1.39265072       5.15425374
Si       4.14031000       6.38272000       0.30005000      -2.16949800      -2.44928300       2.57761000      -2.30756972      -2.38265114       2.44184985
Si       3.68345000       6.43010000       5.01209000       3.98893100       0.98565200      -2.13453700       3.92052052       1.19638466      -2.03477684
Si       5.73751000       0.59059000       2.53265000       5.08228400      -4.90021500       2.23852200       5.20665723      -5.00738885       2.54189945
Si       4.51163000       2.47994000       5.36819000       2.60737700      -2.86786400       7.12589500       2.71660463      -2.59319669       7.30533937
Si       6.43436000       3.75222000       5.86206000       1.38008400       0.66155200      -3.64612400       1.49436155       0.68804200      -3.78761694
Si       8.06432000       7.52318000       8.55473000       2.36409700      -3.06603600      11.34847700       2.70855176      -2.73941171      11.35927293
18
Lattice="6.5 0.0 0.0 0.0 6.5 0.0 0.0 0.0 6.5" Properties=species:S:1:pos:R:3:REF_forces:R:3:MACE_forces:R:3 config_type=Fe12B3Si3 REF_energy=-113.87843945 MACE_energy=-112.4827567607451 pbc="T T T"
Fe       5.40234000       5.43492000       1.53729000      -1.39532100       2.04028400       0.71142300      -1.15494819       2.05643951       0.78302109
Fe       2.09750000       2.10361000       0.54730000       2.35673700      -0.33103000       1.27254800       2.74358695      -0.25782261       1.35155929
Fe       2.84360000       1.73250000       3.81271000       2.28004000      -1.18251600      -0.27344700       2.26362746      -1.08567182      -0.32233830
Fe       0.77541000       4.93717000       1.04317000       1.56096300      -3.83372900       1.76362000       1.54807400      -3.66880406       1.57902519
Fe       0.07665000       3.70431000       3.74351000      -0.75952900      -0.39175400      -2.23189700      -0.84080094      -0.46629882      -2.36569591
Fe       4.77171000       3.58949000       4.78220000      -1.99219600      -4.62409700       0.48420500      -1.82271493      -4.54801871       0.45352624
Fe       4.12430000       1.49867000       1.46476000       0.29771700      -2.38794700       0.28396300       0.36359654      -2.68603657       0.14916156
Fe       0.95387000       5.17746000       5.28728000      -0.57085000      -0.50160400      -1.80733600      -0.81609076      -0.68169349      -1.38834984
Fe       1.93602000       3.09888000       2.36598000      -0.08855100       0.43128300      -0.27209000      -0.23597658       0.59201871      -0.36378647
Fe       5.69037000       1.28357000       4.20026000      -0.40866000      -0.49067900       0.18976600      -0.67491274      -0.37387553       0.24144222
Fe       1.94321000       2.86141000       5.39871000      -0.55906500       0.73218900      -1.80086600      -0.70751062       1.17416705      -2.21141334
Fe       4.33122000       5.38124000       5.25469000      -0.73272900       4.56545400       1.52017900      -0.62493444       4.50064035       1.60335075
B        0.37598000       1.64060000       1.21420000      -3.21263000       2.85095800       0.76078000      -3.21994789       2.74480523       1.03418246
B        1.88110000       4.04794000       3.96741000       2.48956600       2.45119300      -0.32261600       2.51050563       2.22259234      -0.25933589
B        3.63878000       0.94242000       5.41981000      -0.01444500       0.67937600       0.95779200       0.01879191       0.77720336       1.09104016
Si       1.19380000       0.26963000       0.19686000       0.54051800       0.24528300      -1.93219100       0.58974712      -0.00864626      -1.88685360
Si       4.57825000       3.47658000       1.16117000       0.15934200       1.26766700      -0.81102600       0.19654440       1.34285517      -0.76020274
Si       1.09558000       0.76720000       2.75124000       0.04909300      -1.52033200       1.50719200      -0.13663693      -1.63385386       1.27166712
54
Lattice="8.579999685 0.0 0.0 0.0 8.579999685 0.0 0.0 0.0 8.5799996" Properties=species:S:1:pos:R:3:REF_forces:R:3:MACE_forces:R:3 config_type=Fe34B10Si10 REF_energy=-356.0869274 MACE_energy=-357.0846961856215 pbc="T T T"
Fe       0.92877000       1.08311000       2.12831000      -0.53214900      -1.15432400       0.53007800      -0.61139038      -1.16441177       0.46733883
Fe       1.12794000       0.45096000       7.37327000      -2.86345100       2.18226700       1.45805300      -2.74160739       2.09183351       1.41090945
Fe       0.91289000       3.61082000       1.96264000      -1.66570100       0.50807500      -4.76654600      -1.57930359       0.08962474      -4.45445791
Fe       0.97242000       3.25012000       3.83975000      -0.85629000      -1.23507100      -0.91491200      -1.08616671      -1.04409719      -0.65233164
Fe       1.43574000       3.84332000       5.84621000      -1.94378300      -0.72872400       4.94145300      -2.06397501      -0.53630236       4.71748026
Fe       0.45897000       5.99881000       1.32384000       1.86679900       1.45939200      -0.33976700       1.67028579       1.46348272      -0.16948599
Fe       0.05714000       6.25044000       6.01250000       0.66851500      -0.88142700       1.67028200       0.62310661      -0.75288717       1.73741551
Fe       1.87526000       7.05991000       7.27744000      -5.90957000       6.81146600       5.95768600      -5.62439732       6.97024933       5.79038530
Fe       4.21220000       0.80536000       3.81626000       0.44958900      -1.97725700       0.54591300       0.53358904      -1.79751535       0.46560292
Fe       2.64196000       0.75311000       5.88605000       0.80305000      -0.92688600      -1.50973400       0.49676758      -1.09091005      -1.52017533
Fe       2.51735000       4.27963000       7.86001000      -0.17185400       2.88247300       0.00075600      -0.18583465       3.06091313       0.07410999
Fe       2.46175000       4.76211000       4.38544000       2.27245000       6.36429500      -0.60000700       2.28652354       6.36850911      -0.47103565
Fe       3.99132000       4.46692000       6.09268000      -0.21521200      -1.96607600      -0.25853400      -0.33959593      -2.20031593      -0.14388241
Fe       4.03283000       6.20484000       2.50717000       0.32509400      -1.83048700       1.07686200       0.34956214      -1.77874535       1.10832177
Fe       2.62183000       8.12097000       1.25125000      -5.45108600      -1.04608100      -0.88869000      -5.60362142      -1.09080525      -0.67125282
Fe       2.34208000       7.49949000       3.33705000      -1.45221900       0.10179900       1.96325000      -1.30295328       0.10683219       1.58505069
Fe       4.67554000       0.98699000       8.35162000       1.97529500       0.95938300       0.07305200       1.71064742       0.86542514       0.33721605
Fe       4.68615000       2.28426000       1.60336000       6.03713100       4.39249100       1.56082500       6.16381887       4.36470506       1.11329677
Fe       4.95897000       4.28949000       0.91503000       1.24258400       3.77490300      -1.07876200       0.80279484       3.55246168      -1.17041013
Fe       5.62605000       3.84953000       3.25301000      -4.56775200       3.43217100       2.09526400      -4.72330276       3.42673281       1.95414873
Fe       5.63153000       5.70233000       4.67966000       0.04558900       0.36352900      -0.74034800       0.11333483      -0.04870228      -0.58301735
Fe       5.00954000       6.14620000       6.89198000       4.51113600      -2.60361300       1.43664400       4.57239463      -2.56974889       1.28549240
Fe       5.34723000       7.32984000       0.56425000       3.41130600      -7.55812200      -7.44238600       3.21154928      -7.16559232      -7.13153165
Fe       4.57141000       8.20633000       1.67615000      -2.51651100       6.57056000       9.11650700      -2.29657972       6.20343876       8.84168659
Fe       5.67084000       7.83697000       6.02451000      -0.02983000       3.57151200       0.33120700      -0.04455449       3.68201923       0.46333482
Fe       7.65837000       1.05332000       0.64336000       1.95813700       2.93603900      -3.62028800       1.78422969       2.79759745      -3.41476898
Fe       7.23579000       1.49494000       3.62009000       0.88838800      -1.50203300       3.00240400       1.06788772      -1.49850307       3.00453126
Fe       6.96409000       1.59543000       6.70415000       0.40175100      -2.57633900      -0.54943900       0.43748666      -2.38735162      -0.46576398
Fe       6.97946000       3.05325000       2.27831000       3.01329100      -2.85779700      -7.80747400       2.66766848      -2.88458893      -7.42697104
Fe       7.05854000       3.62734000       7.13255000       0.94483300       2.42104600       2.56329500       0.99499573       2.27167828       2.34774561
Fe       7.47490000       4.49325000       0.92243000      -3.13561000       0.06366500       0.11142200      -2.80555772       0.41246966      -0.12938619
Fe       7.76499000       5.40883000       4.05655000       3.42051700      -2.49950500       1.10150300       3.63879831      -2.68168891       1.14024019
Fe       6.91686000       6.16423000       2.38917000      -4.34160700       0.52717700      -3.24358900      -4.38984697       0.88246493      -3.26184551
Fe       7.31773000       7.39473000       4.73130000      -1.41907300       3.06948200       1.38572900      -1.46197822       2.97920636       1.32500653
B        1.63947000       5.44017000       2.85377000      -1.37965300       1.67099600      -0.34434500      -1.40923024       1.77170061      -0.52556572
B        3.47444000       1.29905000       1.69513000      -6.04542900      -7.46227000      -1.52467000      -6.13517349      -7.00514667      -1.30998985
B        2.31673000       1.42955000       3.77944000      -1.85652800      -2.14982900       3.21956500      -1.85337619      -1.95079325       3.29490679
B        3.17088000       0.01260000       8.16689000      -2.14308300      -0.12737100      -3.63430700      -2.08931027       0.14559390      -3.46875028
B        2.48887000       2.23189000       2.44876000      -1.30373000       3.96631200      -0.94871100      -0.91669833       3.67719998      -1.25037906
B        3.55016000       3.21990000       0.17024000       2.13469500      -3.52588700       0.23974700       2.15505702      -3.60227603       0.38947014
B        3.12966000       3.07291000       4.24572000      -6.99085300       0.34377600      -0.16579100      -6.82530477       0.09243686      -0.16249897
B        2.38358000       5.95301000       6.34325000       2.25901800      -8.76611800      -6.31465800       2.12312834      -9.06085209      -6.43722207
B        4.46260000       2.62992000       4.23823000       7.08507900      -1.75449200       0.40993300       6.95456164      -1.82203561       0.34432891
B        7.51183000       3.59374000       3.85724000       1.49621300      -1.20378300       3.39561400       1.49211884      -1.00092975       3.22331804
Si       0.50050000       1.66927000       5.10425000      -1.02554400      -2.67263500       2.61432900      -0.78532450      -2.98045570       2.54776663
Si       0.41923000       4.50138000       8.15701000       0.82744200      -0.47721100      -2.57541600       1.10402754      -0.44016279      -2.75509094
Si       2.90131000       4.25049000       1.93860000       2.71957100       0.04497600      -0.88170100       2.69242323       0.00120904      -1.02841437
Si       3.74353000       6.85388000       5.19884000      -1.20766000       1.80214700      -2.20114300      -1.08348215       1.94674459      -2.07141979
Si       3.54209000       6.47938000       8.21357000      -0.45014500      -1.75854100       4.24377300      -0.57069182      -2.01555257       4.42221813
Si       4.55252000       1.74669000       6.40118000       0.28733400       0.20348600      -1.69136000       0.28981687       0.22904430      -1.66404432
Si       5.87020000       3.30923000       5.41310000       1.93974000       0.55942400      -1.14043100       1.68655660       0.82685337      -1.25597716
Si       6.68392000       0.09389000       2.07850000      -2.78148600      -1.30329400       2.70552900      -2.56036776      -1.23989156       2.86728370
Si       7.30980000       7.36953000       0.08595000       4.18267400      -0.22507900      -1.67891000       4.43466627      -0.36755542      -1.74964576
Si       8.41387000       7.50606000       2.97540000       5.08859000       1.78741200      -0.88875800       5.03182755       1.89739114      -0.91329115
54
Lattice="8.579999685 0.0 0.0 0.0 8.579999685 0.0 0.0 0.0 8.5799996" Properties=species:S:1:pos:R:3:REF_forces:R:3:MACE_forces:R:3 config_type=Fe34B10Si10 REF_energy=-359.84864784 MACE_energy=-360.45894566583746 pbc="T T T"
Fe       0.39531000       2.37288000       0.87042000       3.27925500       2.43832800      -1.60261100       3.16850727       2.60828432      -1.70695488
Fe       0.75383000       1.65209000       3.11094000       1.30783500      -0.34615400      -0.09267000       1.38434833      -0.68573221       0.04832206
Fe       1.33201000       3.79282000       7.26231000      -2.40668100      -1.18131200       0.32245500      -2.54641468      -1.19744428       0.18655317
Fe       0.64436000       4.41396000       2.97573000       2.42004200      -2.26182600       0.38963900       2.46967610      -2.06246972       0.21348064
Fe       0.14751000       6.42079000       3.51005000      -3.07002100       1.32407200      -2.30638400      -3.18494609       1.34543759      -2.49522593