54
Lattice="8.579999685 0.0 0.0 0.0 8.579999685 0.0 0.0 0.0 8.5799996" Properties=species:S:1:pos:R:3:REF_forces:R:3:MACE_forces:R:3 config_type=Fe34B10Si10 REF_energy=-352.89092233 MACE_energy=-353.2169816018027 pbc="T T T"
Fe       1.46495000       0.71583000       1.12880000       3.73230100      -3.41607500      -3.76209700       3.68305942      -3.48100421      -3.54362128
Fe       0.56244000       2.07917000       1.96452000      -3.31290700       4.06628900       2.54508600      -3.24230590       3.96141090       2.32297467
Fe       0.86636000       2.12990000       5.00906000     -10.85567700      -2.87102900      12.20968700     -10.91137322      -2.96051149      12.20351011
Fe       0.24697000       2.61233000       7.83061000      -0.37811800      -2.03816900      -0.08744800      -0.41133057      -1.91278121       0.07336995
Fe       0.35437000       4.66395000       8.16447000      -1.30300600       1.62250000       0.84662400      -1.33255443       1.63764707       0.78524912
Fe       0.83543000       8.00840000       3.01492000       5.54921000      -2.55787300       0.52513800       5.71394734      -2.53726086       0.40089794
Fe       2.03952000       7.84431000       6.63062000      -4.28706100       1.82495200      -1.68802900      -4.08472995       1.97514026      -1.63162352
Fe       3.34318000       0.11090000       2.96052000      -0.46571400      -0.35056300       0.37864800      -0.50208709      -0.22277304       0.47910529
Fe       3.26317000       2.11539000       1.48699000      -3.47884800      -0.03222100       0.61542300      -3.39859186      -0.30889276       0.17965502
Fe       4.14313000       2.75755000       3.31065000      -0.71378000      -2.73118300       1.93004800      -0.63098786      -2.42053130       1.88683007
Fe       2.55051000       2.67374000       7.19710000      -2.55215900      -0.93589000       1.77261600      -2.30121816      -1.13017153       1.71847003
Fe       3.61327000       2.86500000       5.46497000       1.55763200       0.20514300      -0.56676300       1.47993809       0.27950663      -0.31409980
Fe       2.62400000       4.72550000       1.39174000      -1.08585200      -1.19598700       0.59645400      -1.35112990      -0.98421857       0.69373265
Fe       2.20317000       5.21693000       3.87451000      -3.92870900      -4.38103900      -4.92199500      -3.87057716      -4.36912026      -4.97766757
Fe       3.93082000       4.37819000       8.08226000       1.07616800       0.44807800      -0.99700400       1.01324618       0.29575690      -0.93410765
Fe       2.44961000       7.01753000       1.08943000       0.32119000      -1.55635000       3.27006500       0.42481803      -1.61439476       3.26899611
Fe       3.02500000       6.15780000       5.08193000      -1.08486800       1.64126100       3.95415400      -0.60539216       1.64543732       4.05720221
Fe       5.77712000       0.44616000       0.16142000      -2.43333700       0.07175000       4.13474700      -2.46678587       0.41926596       4.21484689
Fe       5.66964000       0.14892000       2.95259000      -3.67617900       1.90971100       0.12919700      -3.68581896       1.63573770       0.32180379
Fe       5.39484000       2.66317000       1.55162000       4.08183700      -3.39937100       3.88213200       4.05303956      -3.64050069       4.03809471
Fe       5.91309000       3.40423000       8.31953000       8.90196200       5.48305700      -2.72562400       8.68359994       5.43924352      -2.68013652
Fe       4.96126000       4.63305000       3.41410000      -3.60269200      -2.00302700       2.25051900      -3.71976077      -2.21905571       2.40393261
Fe       5.11347000       6.81217000       1.78872000      -0.87770500       0.06714300      -1.61156800      -0.69413467       0.06091683      -1.57987846
Fe       5.00950000       6.45991000       8.24507000      -2.30619500      -0.19808200      -1.52355700      -2.28809377       0.00848910      -1.68757618
Fe       4.64263000       7.71190000       5.75084000       2.50156800       4.23919200      -1.55456800       2.59091360       4.29653241      -1.59783396
Fe       7.32285000       0.33022000       5.03535000      -0.99210900      -0.59745100       4.73628300      -1.02297243      -0.36210799       4.80801132
Fe       6.75330000       1.32958000       7.05071000       0.53851300       2.01290400       0.36400700       0.55587510       1.82265434       0.30065085
Fe       6.82686000       2.53028000       3.66692000      -0.08907100      -0.12987400      -0.26318300      -0.04854758      -0.20220410      -0.26256243
Fe       6.83617000       5.56618000       0.59386000       1.74434500       1.47371700      -3.32847200       1.81555140       1.63971259      -3.44555112
Fe       8.27091000       4.29855000       2.87718000       3.23308900       0.33980500       1.37352500       3.20037020       0.19919031       1.31647038
Fe       6.58774000       4.90718000       4.97515000      -1.87594500       0.58060600      -0.05143700      -2.13514631       0.63737764      -0.33308318
Fe       6.86773000       6.79187000       3.27473000       1.52763600      -2.76254700       0.67579100       1.37827609      -2.42189607       0.38162652
Fe       8.09083000       8.29691000       0.84396000      -4.18921500      -1.95965200       9.56442300      -4.15804923      -2.31427523       9.67646918
Fe       6.62133000       7.67903000       7.47205000      -3.65417600       1.51975600      -3.32990400      -3.89834740       1.21905375      -3.51359562
B        3.45077000       6.81738000       6.75435000       2.04131500      -2.79808300       3.80923700       1.92384230      -2.72877778       3.94952613
B        4.67436000       1.10514000       4.73414000       0.75036200       0.95391600      -0.52852700       0.82530413       0.87706762      -0.46044954
B        6.18153000       2.20088000       5.47737000      -4.49435700      -3.20609500      -2.27763700      -4.72434895      -3.15532469      -2.49057415
B        5.08133000       4.10197000       6.35983000       0.35152900       0.25548900      -0.65354500       0.57034809       0.33176010      -0.60989151
B        4.48663000       4.29393000       1.40792000      -0.27448100       1.04603100       0.21283300      -0.27178432       1.21448650       0.15624545
B        4.96286000       5.88068000       6.14703000       0.60492000      -1.85032800       0.29314600       0.61077336      -1.92436214       0.13716577
B        8.17242000       5.65216000       5.55863000       1.00443800       0.65677900      -0.69824300       1.04583412       0.70498712      -0.34305289
B        7.98743000       6.92663000       6.60530000       5.86774900       2.58695800      -4.05103700       5.83856696       2.48158499      -3.71668240
B        7.10769000       5.72812000       6.91109000      -2.33709700      -3.34606800       1.34633400      -2.31150594      -3.49164414       1.34159021
B        7.81665000       6.81498000       8.33858000       5.04350100      -2.41043400       0.97359300       5.14210019      -2.42207439       0.72964273
Si       0.06983000       0.14925000       7.74742000       4.12649000       2.60901100      -8.87608100       3.95996953       2.64221542      -8.87213425
Si       1.93337000       2.41223000       3.74634000      10.14534600       2.98113100     -12.18526000      10.22609983       3.10361569     -12.00231611
Si       0.75978000       6.02813000       1.69309000      -4.13401100      -0.74920300       1.02787300      -4.11554928      -0.87442688       1.02291191
Si       2.22023000       5.10313000       7.16329000      -1.58663400       1.19675500      -1.89967800      -1.78683974       1.14604155      -1.93348396
Si       3.27754000       8.17117000       8.35443000       4.04667900       4.58101600      -2.24829100       3.90021035       4.53892514      -2.45672470
Si       4.48145000       2.18337000       8.34202000      -5.72220500      -5.96162700      -4.99603400      -5.48651061      -5.81396233      -5.15731781
Si       6.36439000       4.54151000       2.12641000       2.28764700      -2.33178900       1.39384200       2.58648239      -2.23387888       1.27503029
Si       4.52267000       6.51460000       3.75633000       0.42177200       5.22743800       1.25328700       0.14148439       5.35913737       1.38153752
Si       7.68278000       0.22257000       3.11016000      -0.17295300       4.89916800      -3.86478000      -0.29064960       4.78167228      -3.97783201
Si       7.35363000       3.38410000       6.13231000       4.40786200       1.27045000       2.62604800       4.38347312       1.39158399       2.99624718
54
Lattice="8.579999685 0.0 0.0 0.0 8.579999685 0.0 0.0 0.0 8.5799996" Properties=species:S:1:pos:R:3:REF_forces:R:3:MACE_forces:R:3 config_type=Fe34B10Si10 REF_energy=-354.71875992 MACE_energy=-355.30925342026666 pbc="T T T"
Fe       0.43313000       1.19321000       2.96848000       1.47291300       2.99028000       0.61180900       1.64159822       2.97811755       0.33290456
Fe       0.91365000       1.12516000       8.09995000       2.76260400      -2.00335600       1.20968300       2.53280077      -2.11248296       1.10153847
Fe       1.17142000       2.67870000       5.23446000      -1.90323000       6.04651700       0.58026800      -1.69223940       6.29855630       0.62528396
Fe       0.60772000       3.85484000       0.87278000       2.66909500       4.89444800       4.53699300       2.66046307       5.13662629       4.25790645
Fe       1.41565000       3.44858000       3.01161000      -0.29549500       2.03729500      -0.74017400      -0.26119427       1.92052219      -0.67897083
Fe       0.04226000       2.91249000       8.09734000      -3.39897200      -2.84207300      -2.69442200      -3.06999228      -2.79243118      -2.48607787
Fe       1.33282000       7.09057000       5.22634000      -0.45239700      -1.35392500       0.92503500      -0.23871605      -1.50052499       0.82417873
Fe       2.06045000       7.92051000       0.98063000      -3.11321000      -0.30108300      -2.49280600      -3.22409466      -0.52652207      -2.33391912
Fe       2.03627000       8.24295000       3.50701000      -1.42216600       4.38122900       0.88517600      -1.54172399       4.18413343       0.56745395
Fe       0.01253000       8.02686000       7.00667000       2.58679700       0.98610200     -11.80201700       2.52775175       0.82891086     -11.89816137
Fe       3.00353000       0.57289000       6.13981000      -1.03922300       0.18357300       0.93137300      -0.70134126      -0.00937186       1.07372832
Fe       3.69949000       2.65196000       7.51811000       2.76433000      -4.34399200      -3.80269000       2.57129989      -4.14377982      -3.67044455
Fe       2.94478000       6.44154000       3.03987000       7.21319500      -3.66655800      -1.17614100       7.12817436      -3.40313164      -0.95576465
Fe       2.94309000       5.75189000       6.64956000      -6.24071800      -0.74678300       3.86021800      -6.54141138      -0.74619878       3.91133936
Fe       3.71160000       8.39321000       1.86324000       2.24845700      -0.43546600       0.28887200       2.37923356      -0.25506557       0.52575491
Fe       4.07810000       8.43915000       4.32840000       2.88035800       1.28304800      -0.49181300       2.91224295       1.47709223      -0.79413111
Fe       5.57499000       0.73262000       6.31633000      -3.12774100      -1.68249800      -0.98058200      -2.93024617      -1.72756749      -1.02420166
Fe       4.70712000       1.94493000       1.65492000      -2.04675700       4.97917500      -3.67899600      -2.12122058       4.85294465      -3.41133409
Fe       4.73401000       4.18392000       1.24748000       0.71501700       1.80608500      -0.06999200       0.69831057       1.97746377      -0.13270076
Fe       4.56687000       4.22266000       4.39618000       0.73801700       3.32591500      -2.10569900       0.56563035       3.46175551      -2.27585767
Fe       4.51224000       4.61167000       7.05684000       2.53211900      -0.41024200       0.53825400       2.96220775      -0.69413739       0.62556971
Fe       6.32808000       6.81945000       4.24288000      -3.20445400      -0.33519400      -1.28892300      -2.84991909      -0.28464579      -1.07887444
Fe       6.22240000       7.17309000       0.16230000      -3.30904600      -2.75215800       1.90373500      -3.53589809      -2.98389680       1.95773202
Fe       4.54224000       7.44382000       7.03838000       0.17895600      -5.02037800      -8.74618400       0.15339564      -5.31214362      -8.83318938
Fe       4.73272000       8.55832000       8.35561000      -0.10588400       8.96287400       6.54083400      -0.26377132       9.39812191       6.33742536
Fe       7.67285000       2.82429000       2.17742000      -2.12886900      -0.76272600      -2.06587500      -2.11940773      -0.70928295      -1.91214505
Fe       6.74071000       1.77406000       4.33655000       0.47479500       0.50025500      -0.42349800       0.11356075       0.51960354      -0.53556718
Fe       7.16362000       1.61896000       6.68131000       5.11373900       1.83737400       0.70818800       4.89011113       1.65078446       0.63539069
Fe       6.73653000       4.13840000       7.84564000       0.19062300       0.32905600       3.59274800       0.35770249       0.46674006       3.68250295
Fe       6.61248000       5.35948000       2.44590000       0.96755600      -0.77403900      -0.47053600       0.88832295      -0.75738083      -0.41297851
Fe       8.39074000       4.95678000       4.82580000       0.50677700       3.21370700       1.22596300       0.56708029       3.14112687       1.08252703
Fe       6.62275000       6.29700000       6.29237000       0.91106900      -0.58785400       1.74696000       0.84707558      -0.46991409       1.52413099
Fe       8.00875000       8.14674000       2.12563000      -1.25903800      -1.94608200      -3.37077000      -0.86566322      -1.94683681      -3.54963016
Fe       7.96861000       8.10559000       4.08816000       1.24434400       0.03207600       4.40361200       0.66937145      -0.02809997       4.62884501
B        3.14587000       1.61638000       2.59818000      -3.96044800      -1.57388800      -2.24367700      -4.11765303      -1.54308942      -2.21297191
B        4.07212000       1.93087000       3.78701000       0.55534200       0.12762300      -3.25123200       0.40571038      -0.00102343      -3.33952100
B        2.24412000       1.90783000       4.05913000      -1.80380000      -9.70850100      -5.48536600      -1.86387631      -9.89935390      -5.57810834
B        2.90130000       3.06657000       4.45062000       2.48509300       7.60479000      -1.50334300       2.79839146       7.13827918      -1.41965815
B        2.82587000       3.80138000       5.80651000       0.21675600       2.27927400       3.92227300       0.26942491       2.12636371       3.94896166
B        2.60929000       5.04297000       1.66311000       0.12617300      -0.77075900      -0.46531300      -0.02892514      -0.94804387      -0.46857084
B        2.47198000       4.95014000       4.32601000      -0.76752800      -1.31946700       0.35153300      -0.89866534      -1.17214375       0.36678108
B        2.73354000       7.81887000       7.66829000      -1.47869400      -0.15377200       0.00458000      -1.42049623      -0.13458571       0.09976935
B        5.68071000       2.28134000       7.79544000      -0.95924500       0.41857400       1.11780500      -1.05274896       0.37335434       1.10911409
B        7.77536000       3.70665000       3.76574000      -0.44877700      -1.48394500      -0.38974400      -0.48262006      -1.39438688      -0.18711095
Si       0.79518000       0.92195000       5.77957000      -1.66645900      -4.94136200      -1.10925300      -1.64458536      -5.05360550      -0.92332776
Si       0.88055000       4.20706000       6.73551000       1.15626000       3.58432200      -0.32349000       1.15191240       3.68945919      -0.30350062
Si       1.15025000       6.44729000       2.43826000      -7.77651300      -1.83655100      -1.54918700      -7.83792739      -1.67917919      -1.75995288
Si       2.82820000       3.29548000       0.50208000      -4.05499500       1.58525200       5.32597100      -4.11648286       1.38620652       5.20230956
Si       4.14031000       6.38272000       0.30005000      -2.16949800      -2.44928300       2.57761000      -2.30528931      -2.34950518       2.44058747
Si       3.68345000       6.43010000       5.01209000       3.98893100       0.98565200      -2.13453700       3.92467334       1.20419455      -2.05157859
Si       5.73751000       0.59059000       2.53265000       5.08228400      -4.90021500       2.23852200       5.17217317      -4.97584908       2.51548014
Si       4.51163000       2.47994000       5.36819000       2.60737700      -2.86786400       7.12589500       2.74515596      -2.57767198       7.30376984
Si       6.43436000       3.75222000       5.86206000       1.38008400       0.66155200      -3.64612400       1.48803204       0.66372077      -3.77923555
Si       8.06432000       7.52318000       8.55473000       2.36409700      -3.06603600      11.34847700       2.70430231      -2.74222536      11.32649934
18
Lattice="6.5 0.0 0.0 0.0 6.5 0.0 0.0 0.0 6.5" Properties=species:S:1:pos:R:3:REF_forces:R:3:MACE_forces:R:3 config_type=Fe12B3Si3 REF_energy=-113.87843945 MACE_energy=-112.41286454013036 pbc="T T T"
Fe       5.40234000       5.43492000       1.53729000      -1.39532100       2.04028400       0.71142300      -1.19446809       2.05374846       0.79528858
Fe       2.09750000       2.10361000       0.54730000       2.35673700      -0.33103000       1.27254800       2.67968909      -0.27297212       1.47574901
Fe       2.84360000       1.73250000       3.81271000       2.28004000      -1.18251600      -0.27344700       2.23301073      -1.05010960      -0.34625125
Fe       0.77541000       4.93717000       1.04317000       1.56096300      -3.83372900       1.76362000       1.54430892      -3.65809616       1.57504953
Fe       0.07665000       3.70431000       3.74351000      -0.75952900      -0.39175400      -2.23189700      -0.91028038      -0.47744889      -2.33178939
Fe       4.77171000       3.58949000       4.78220000      -1.99219600      -4.62409700       0.48420500      -1.77476854      -4.55270090       0.42352498
Fe       4.12430000       1.49867000       1.46476000       0.29771700      -2.38794700       0.28396300       0.33769117      -2.69998876       0.16371111
Fe       0.95387000       5.17746000       5.28728000      -0.57085000      -0.50160400      -1.80733600      -0.83830743      -0.69746375      -1.37697978
Fe       1.93602000       3.09888000       2.36598000      -0.08855100       0.43128300      -0.27209000      -0.23176289       0.55869880      -0.37638044
Fe       5.69037000       1.28357000       4.20026000      -0.40866000      -0.49067900       0.18976600      -0.72126638      -0.35425606       0.25347455
Fe       1.94321000       2.86141000       5.39871000      -0.55906500       0.73218900      -1.80086600      -0.65874719       1.07748094      -2.22844486
Fe       4.33122000       5.38124000       5.25469000      -0.73272900       4.56545400       1.52017900      -0.64204467       4.48337908       1.58475534
B        0.37598000       1.64060000       1.21420000      -3.21263000       2.85095800       0.76078000      -3.17243477       2.79235832       0.99307668
B        1.88110000       4.04794000       3.96741000       2.48956600       2.45119300      -0.32261600       2.54482427       2.29464568      -0.31163616
B        3.63878000       0.94242000       5.41981000      -0.01444500       0.67937600       0.95779200       0.05292357       0.77207483       1.07880880
Si       1.19380000       0.26963000       0.19686000       0.54051800       0.24528300      -1.93219100       0.62990434       0.00549087      -1.90254960
Si       4.57825000       3.47658000       1.16117000       0.15934200       1.26766700      -0.81102600       0.21308962       1.37007340      -0.75721216
Si       1.09558000       0.76720000       2.75124000       0.04909300      -1.52033200       1.50719200      -0.09136137      -1.64491415       1.28780508
54
Lattice="8.579999685 0.0 0.0 0.0 8.579999685 0.0 0.0 0.0 8.5799996" Properties=species:S:1:pos:R:3:REF_forces:R:3:MACE_forces:R:3 config_type=Fe34B10Si10 REF_energy=-356.0869274 MACE_energy=-357.01938423542254 pbc="T T T"
Fe       0.92877000       1.08311000       2.12831000      -0.53214900      -1.15432400       0.53007800      -0.63142247      -1.16821007       0.44272904
Fe       1.12794000       0.45096000       7.37327000      -2.86345100       2.18226700       1.45805300      -2.71856128       2.02746409       1.41578996
Fe       0.91289000       3.61082000       1.96264000      -1.66570100       0.50807500      -4.76654600      -1.58372824       0.16327482      -4.50837573
Fe       0.97242000       3.25012000       3.83975000      -0.85629000      -1.23507100      -0.91491200      -1.10666987      -1.07720559      -0.60095828
Fe       1.43574000       3.84332000       5.84621000      -1.94378300      -0.72872400       4.94145300      -2.05234137      -0.54692752       4.74209753
Fe       0.45897000       5.99881000       1.32384000       1.86679900       1.45939200      -0.33976700       1.67486625       1.46248985      -0.15806029
Fe       0.05714000       6.25044000       6.01250000       0.66851500      -0.88142700       1.67028200       0.61753779      -0.74862130       1.70047403
Fe       1.87526000       7.05991000       7.27744000      -5.90957000       6.81146600       5.95768600      -5.63174145       6.99368545       5.75857630
Fe       4.21220000       0.80536000       3.81626000       0.44958900      -1.97725700       0.54591300       0.52394620      -1.80587979       0.44674572
Fe       2.64196000       0.75311000       5.88605000       0.80305000      -0.92688600      -1.50973400       0.50169884      -1.07026356      -1.48498910
Fe       2.51735000       4.27963000       7.86001000      -0.17185400       2.88247300       0.00075600      -0.17882585       3.04062787       0.04129884
Fe       2.46175000       4.76211000       4.38544000       2.27245000       6.36429500      -0.60000700       2.31784479       6.35900963      -0.50786922
Fe       3.99132000       4.46692000       6.09268000      -0.21521200      -1.96607600      -0.25853400      -0.31301149      -2.19307359      -0.16780600
Fe       4.03283000       6.20484000       2.50717000       0.32509400      -1.83048700       1.07686200       0.38848508      -1.75672855       1.08817995
Fe       2.62183000       8.12097000       1.25125000      -5.45108600      -1.04608100      -0.88869000      -5.56012069      -1.10232531      -0.65912358
Fe       2.34208000       7.49949000       3.33705000      -1.45221900       0.10179900       1.96325000      -1.29240840       0.10837388       1.58729106
Fe       4.67554000       0.98699000       8.35162000       1.97529500       0.95938300       0.07305200       1.71890433       0.87595731       0.33873156
Fe       4.68615000       2.28426000       1.60336000       6.03713100       4.39249100       1.56082500       6.16055638       4.36245058       1.11471055
Fe       4.95897000       4.28949000       0.91503000       1.24258400       3.77490300      -1.07876200       0.79889684       3.55280714      -1.17044725
Fe       5.62605000       3.84953000       3.25301000      -4.56775200       3.43217100       2.09526400      -4.69067345       3.44981023       1.91759880
Fe       5.63153000       5.70233000       4.67966000       0.04558900       0.36352900      -0.74034800       0.10982839      -0.04474766      -0.58695651
Fe       5.00954000       6.14620000       6.89198000       4.51113600      -2.60361300       1.43664400       4.54739810      -2.53074574       1.29560884
Fe       5.34723000       7.32984000       0.56425000       3.41130600      -7.55812200      -7.44238600       3.26510409      -7.11593980      -7.12943103
Fe       4.57141000       8.20633000       1.67615000      -2.51651100       6.57056000       9.11650700      -2.40306765       6.14045435       8.82369169
Fe       5.67084000       7.83697000       6.02451000      -0.02983000       3.57151200       0.33120700      -0.04882892       3.66878177       0.45190933
Fe       7.65837000       1.05332000       0.64336000       1.95813700       2.93603900      -3.62028800       1.82272634       2.80899961      -3.43176783
Fe       7.23579000       1.49494000       3.62009000       0.88838800      -1.50203300       3.00240400       1.06107745      -1.47955815       2.99123990
Fe       6.96409000       1.59543000       6.70415000       0.40175100      -2.57633900      -0.54943900       0.44159577      -2.41055179      -0.47444925
Fe       6.97946000       3.05325000       2.27831000       3.01329100      -2.85779700      -7.80747400       2.64070016      -2.89043846      -7.38193730
Fe       7.05854000       3.62734000       7.13255000       0.94483300       2.42104600       2.56329500       1.00499770       2.30492812       2.36785497
Fe       7.47490000       4.49325000       0.92243000      -3.13561000       0.06366500       0.11142200      -2.81791394       0.40187265      -0.13586069
Fe       7.76499000       5.40883000       4.05655000       3.42051700      -2.49950500       1.10150300       3.58378386      -2.65593730       1.12841888
Fe       6.91686000       6.16423000       2.38917000      -4.34160700       0.52717700      -3.24358900      -4.35069764       0.83763920      -3.24546353
Fe       7.31773000       7.39473000       4.73130000      -1.41907300       3.06948200       1.38572900      -1.44467235       2.97798408       1.33189801
B        1.63947000       5.44017000       2.85377000      -1.37965300       1.67099600      -0.34434500      -1.44573157       1.74304026      -0.55065337
B        3.47444000       1.29905000       1.69513000      -6.04542900      -7.46227000      -1.52467000      -6.09081230      -6.96606711      -1.28858316
B        2.31673000       1.42955000       3.77944000      -1.85652800      -2.14982900       3.21956500      -1.82356222      -1.96346340       3.33005702
B        3.17088000       0.01260000       8.16689000      -2.14308300      -0.12737100      -3.63430700      -2.08775440       0.12750784      -3.46868544
B        2.48887000       2.23189000       2.44876000      -1.30373000       3.96631200      -0.94871100      -0.89709122       3.71875025      -1.24066730
B        3.55016000       3.21990000       0.17024000       2.13469500      -3.52588700       0.23974700       2.13918910      -3.56423669       0.38105095
B        3.12966000       3.07291000       4.24572000      -6.99085300       0.34377600      -0.16579100      -6.87633214       0.09103641      -0.18235338
B        2.38358000       5.95301000       6.34325000       2.25901800      -8.76611800      -6.31465800       2.10998415      -9.03721544      -6.38721047
B        4.46260000       2.62992000       4.23823000       7.08507900      -1.75449200       0.40993300       6.98494497      -1.83649922       0.34685495
B        7.51183000       3.59374000       3.85724000       1.49621300      -1.20378300       3.39561400       1.50364458      -1.01322549       3.21972802
Si       0.50050000       1.66927000       5.10425000      -1.02554400      -2.67263500       2.61432900      -0.78393981      -2.97851716       2.57180581
Si       0.41923000       4.50138000       8.15701000       0.82744200      -0.47721100      -2.57541600       1.09426728      -0.43975612      -2.75298907
Si       2.90131000       4.25049000       1.93860000       2.71957100       0.04497600      -0.88170100       2.70582971      -0.00859751      -1.03121068
Si       3.74353000       6.85388000       5.19884000      -1.20766000       1.80214700      -2.20114300      -1.07441682       1.92334851      -2.08917583
Si       3.54209000       6.47938000       8.21357000      -0.45014500      -1.75854100       4.24377300      -0.59002533      -2.01992385       4.42003153
Si       4.55252000       1.74669000       6.40118000       0.28733400       0.20348600      -1.69136000       0.26757853       0.19990283      -1.63117569
Si       5.87020000       3.30923000       5.41310000       1.93974000       0.55942400      -1.14043100       1.68057123       0.84175564      -1.20527629
Si       6.68392000       0.09389000       2.07850000      -2.78148600      -1.30329400       2.70552900      -2.57786846      -1.24622432       2.84622645
Si       7.30980000       7.36953000       0.08595000       4.18267400      -0.22507900      -1.67891000       4.38072661      -0.39191101      -1.74724156
Si       8.41387000       7.50606000       2.97540000       5.08859000       1.78741200      -0.88875800       5.02553481       1.88083909      -0.88188190
54
Lattice="8.579999685 0.0 0.0 0.0 8.579999685 0.0 0.0 0.0 8.5799996" Properties=species:S:1:pos:R:3:REF_forces:R:3:MACE_forces:R:3 config_type=Fe34B10Si10 REF_energy=-359.84864784 MACE_energy=-360.38871639074654 pbc="T T T"
Fe       0.39531000       2.37288000       0.87042000       3.27925500       2.43832800      -1.60261100       3.16798994       2.63845699      -1.72157020
Fe       0.75383000       1.65209000       3.11094000       1.30783500      -0.34615400      -0.09267000       1.34748145      -0.73972631       0.04673086
Fe       1.33201000       3.79282000       7.26231000      -2.40668100      -1.18131200       0.32245500      -2.49828658      -1.16384212       0.18493783
Fe       0.64436000       4.41396000       2.97573000       2.42004200      -2.26182600       0.38963900       2.44710821      -2.06036934       0.22421992
Fe       0.14751000       6.42079000       3.51005000      -3.07002100       1.32407200      -2.30638400      -3.15685854       1.33260508      -2.48553420