54
Lattice="8.579999685 0.0 0.0 0.0 8.579999685 0.0 0.0 0.0 8.5799996" Properties=species:S:1:pos:R:3:REF_forces:R:3:MACE_forces:R:3 config_type=Fe34B10Si10 REF_energy=-352.89092233 MACE_energy=-353.28373184752564 pbc="T T T"
Fe       1.46495000       0.71583000       1.12880000       3.73230100      -3.41607500      -3.76209700       3.69286267      -3.44695936      -3.57704463
Fe       0.56244000       2.07917000       1.96452000      -3.31290700       4.06628900       2.54508600      -3.34900380       4.06964956       2.36080105
Fe       0.86636000       2.12990000       5.00906000     -10.85567700      -2.87102900      12.20968700     -10.89134500      -2.94042788      12.20198064
Fe       0.24697000       2.61233000       7.83061000      -0.37811800      -2.03816900      -0.08744800      -0.36002628      -2.07958475       0.10191258
Fe       0.35437000       4.66395000       8.16447000      -1.30300600       1.62250000       0.84662400      -1.36325288       1.74579305       0.80327500
Fe       0.83543000       8.00840000       3.01492000       5.54921000      -2.55787300       0.52513800       5.58913191      -2.64541966       0.45984927
Fe       2.03952000       7.84431000       6.63062000      -4.28706100       1.82495200      -1.68802900      -4.04737819       2.03774971      -1.70564921
Fe       3.34318000       0.11090000       2.96052000      -0.46571400      -0.35056300       0.37864800      -0.49106662      -0.17624465       0.46482458
Fe       3.26317000       2.11539000       1.48699000      -3.47884800      -0.03222100       0.61542300      -3.30227825      -0.26606264       0.23569140
Fe       4.14313000       2.75755000       3.31065000      -0.71378000      -2.73118300       1.93004800      -0.69741918      -2.44454007       1.87895340
Fe       2.55051000       2.67374000       7.19710000      -2.55215900      -0.93589000       1.77261600      -2.30711295      -1.03118942       1.70421413
Fe       3.61327000       2.86500000       5.46497000       1.55763200       0.20514300      -0.56676300       1.46008344       0.31586827      -0.28294405
Fe       2.62400000       4.72550000       1.39174000      -1.08585200      -1.19598700       0.59645400      -1.34576577      -0.95910924       0.68790222
Fe       2.20317000       5.21693000       3.87451000      -3.92870900      -4.38103900      -4.92199500      -3.86503257      -4.31527649      -5.01729822
Fe       3.93082000       4.37819000       8.08226000       1.07616800       0.44807800      -0.99700400       0.98045027       0.24892634      -1.02139824
Fe       2.44961000       7.01753000       1.08943000       0.32119000      -1.55635000       3.27006500       0.44277629      -1.61883119       3.34443668
Fe       3.02500000       6.15780000       5.08193000      -1.08486800       1.64126100       3.95415400      -0.38421197       1.62644779       3.95483788
Fe       5.77712000       0.44616000       0.16142000      -2.43333700       0.07175000       4.13474700      -2.41989078       0.42419622       4.17861055
Fe       5.66964000       0.14892000       2.95259000      -3.67617900       1.90971100       0.12919700      -3.70085747       1.66181434       0.29991467
Fe       5.39484000       2.66317000       1.55162000       4.08183700      -3.39937100       3.88213200       3.98229704      -3.76036885       4.12931870
Fe       5.91309000       3.40423000       8.31953000       8.90196200       5.48305700      -2.72562400       8.71198389       5.44020720      -2.75210134
Fe       4.96126000       4.63305000       3.41410000      -3.60269200      -2.00302700       2.25051900      -3.88544681      -2.31806742       2.39310094
Fe       5.11347000       6.81217000       1.78872000      -0.87770500       0.06714300      -1.61156800      -0.71159979       0.12221120      -1.62031464
Fe       5.00950000       6.45991000       8.24507000      -2.30619500      -0.19808200      -1.52355700      -2.20062808      -0.03145398      -1.72406089
Fe       4.64263000       7.71190000       5.75084000       2.50156800       4.23919200      -1.55456800       2.55977499       4.26394389      -1.60377799
Fe       7.32285000       0.33022000       5.03535000      -0.99210900      -0.59745100       4.73628300      -0.99431730      -0.36626554       4.71648625
Fe       6.75330000       1.32958000       7.05071000       0.53851300       2.01290400       0.36400700       0.48707768       1.87074720       0.32016312
Fe       6.82686000       2.53028000       3.66692000      -0.08907100      -0.12987400      -0.26318300       0.03728546      -0.19762866      -0.22670997
Fe       6.83617000       5.56618000       0.59386000       1.74434500       1.47371700      -3.32847200       1.79707833       1.79336201      -3.48162551
Fe       8.27091000       4.29855000       2.87718000       3.23308900       0.33980500       1.37352500       3.09932291       0.18298737       1.33550155
Fe       6.58774000       4.90718000       4.97515000      -1.87594500       0.58060600      -0.05143700      -2.07730916       0.57539007      -0.54767047
Fe       6.86773000       6.79187000       3.27473000       1.52763600      -2.76254700       0.67579100       1.47115133      -2.45655324       0.36182975
Fe       8.09083000       8.29691000       0.84396000      -4.18921500      -1.95965200       9.56442300      -4.23214286      -2.26722046       9.62516092
Fe       6.62133000       7.67903000       7.47205000      -3.65417600       1.51975600      -3.32990400      -3.97076465       1.30979941      -3.47087955
B        3.45077000       6.81738000       6.75435000       2.04131500      -2.79808300       3.80923700       1.94728481      -2.83930975       3.92102759
B        4.67436000       1.10514000       4.73414000       0.75036200       0.95391600      -0.52852700       0.80370383       0.92035766      -0.42323255
B        6.18153000       2.20088000       5.47737000      -4.49435700      -3.20609500      -2.27763700      -4.63617476      -3.16402446      -2.42985533
B        5.08133000       4.10197000       6.35983000       0.35152900       0.25548900      -0.65354500       0.49777002       0.32904611      -0.58891689
B        4.48663000       4.29393000       1.40792000      -0.27448100       1.04603100       0.21283300      -0.23072500       1.21377246       0.22974883
B        4.96286000       5.88068000       6.14703000       0.60492000      -1.85032800       0.29314600       0.47619035      -1.88867143       0.12879154
B        8.17242000       5.65216000       5.55863000       1.00443800       0.65677900      -0.69824300       1.04290151       0.75046642      -0.24309581
B        7.98743000       6.92663000       6.60530000       5.86774900       2.58695800      -4.05103700       5.76100091       2.29165759      -3.63582601
B        7.10769000       5.72812000       6.91109000      -2.33709700      -3.34606800       1.34633400      -2.11948957      -3.39710604       1.54493459
B        7.81665000       6.81498000       8.33858000       5.04350100      -2.41043400       0.97359300       5.02541051      -2.60197053       0.54532075
Si       0.06983000       0.14925000       7.74742000       4.12649000       2.60901100      -8.87608100       3.99305452       2.60462126      -8.79648842
Si       1.93337000       2.41223000       3.74634000      10.14534600       2.98113100     -12.18526000      10.23277177       3.05494389     -12.01107257
Si       0.75978000       6.02813000       1.69309000      -4.13401100      -0.74920300       1.02787300      -4.13561078      -0.85255518       0.97203045
Si       2.22023000       5.10313000       7.16329000      -1.58663400       1.19675500      -1.89967800      -1.65714617       1.16706638      -1.85935077
Si       3.27754000       8.17117000       8.35443000       4.04667900       4.58101600      -2.24829100       3.92871727       4.54258247      -2.38614562
Si       4.48145000       2.18337000       8.34202000      -5.72220500      -5.96162700      -4.99603400      -5.46355430      -5.93100956      -5.14549966
Si       6.36439000       4.54151000       2.12641000       2.28764700      -2.33178900       1.39384200       2.54953008      -2.14121486       1.29876096
Si       4.52267000       6.51460000       3.75633000       0.42177200       5.22743800       1.25328700       0.12345598       5.30201282       1.34057452
Si       7.68278000       0.22257000       3.11016000      -0.17295300       4.89916800      -3.86478000      -0.24341633       4.84726609      -3.93750901
Si       7.35363000       3.38410000       6.13231000       4.40786200       1.27045000       2.62604800       4.38989953       1.42417850       2.94851281
54
Lattice="8.579999685 0.0 0.0 0.0 8.579999685 0.0 0.0 0.0 8.5799996" Properties=species:S:1:pos:R:3:REF_forces:R:3:MACE_forces:R:3 config_type=Fe34B10Si10 REF_energy=-354.71875992 MACE_energy=-355.3708813215858 pbc="T T T"
Fe       0.43313000       1.19321000       2.96848000       1.47291300       2.99028000       0.61180900       1.44895669       2.89821688       0.35842503
Fe       0.91365000       1.12516000       8.09995000       2.76260400      -2.00335600       1.20968300       2.39374993      -1.89315975       1.06077177
Fe       1.17142000       2.67870000       5.23446000      -1.90323000       6.04651700       0.58026800      -1.71272375       6.14706452       0.37943865
Fe       0.60772000       3.85484000       0.87278000       2.66909500       4.89444800       4.53699300       2.60981616       5.08289463       4.15516548
Fe       1.41565000       3.44858000       3.01161000      -0.29549500       2.03729500      -0.74017400      -0.02613656       1.92734669      -0.65290568
Fe       0.04226000       2.91249000       8.09734000      -3.39897200      -2.84207300      -2.69442200      -2.79460220      -2.99262320      -2.43767372
Fe       1.33282000       7.09057000       5.22634000      -0.45239700      -1.35392500       0.92503500      -0.22928736      -1.49163024       0.95722283
Fe       2.06045000       7.92051000       0.98063000      -3.11321000      -0.30108300      -2.49280600      -3.24827880      -0.42578742      -2.47458585
Fe       2.03627000       8.24295000       3.50701000      -1.42216600       4.38122900       0.88517600      -1.50702465       4.10543844       0.63813693
Fe       0.01253000       8.02686000       7.00667000       2.58679700       0.98610200     -11.80201700       2.45793381       0.89002284     -11.89910220
Fe       3.00353000       0.57289000       6.13981000      -1.03922300       0.18357300       0.93137300      -0.77171304       0.13242052       0.99556168
Fe       3.69949000       2.65196000       7.51811000       2.76433000      -4.34399200      -3.80269000       2.60554372      -4.11756842      -3.67112562
Fe       2.94478000       6.44154000       3.03987000       7.21319500      -3.66655800      -1.17614100       6.98986656      -3.46719040      -1.00284975
Fe       2.94309000       5.75189000       6.64956000      -6.24071800      -0.74678300       3.86021800      -6.43021863      -0.63794633       3.96714613
Fe       3.71160000       8.39321000       1.86324000       2.24845700      -0.43546600       0.28887200       2.31809663      -0.11811546       0.68350052
Fe       4.07810000       8.43915000       4.32840000       2.88035800       1.28304800      -0.49181300       2.84980536       1.33014316      -0.76189373
Fe       5.57499000       0.73262000       6.31633000      -3.12774100      -1.68249800      -0.98058200      -2.80406438      -1.71593159      -0.92384926
Fe       4.70712000       1.94493000       1.65492000      -2.04675700       4.97917500      -3.67899600      -2.14800772       4.78989578      -3.42755546
Fe       4.73401000       4.18392000       1.24748000       0.71501700       1.80608500      -0.06999200       0.72137247       1.99302428      -0.11688547
Fe       4.56687000       4.22266000       4.39618000       0.73801700       3.32591500      -2.10569900       0.52069012       3.16437678      -2.17041039
Fe       4.51224000       4.61167000       7.05684000       2.53211900      -0.41024200       0.53825400       2.96640473      -0.74928526       0.48377350
Fe       6.32808000       6.81945000       4.24288000      -3.20445400      -0.33519400      -1.28892300      -2.79794895      -0.23753975      -1.07701720
Fe       6.22240000       7.17309000       0.16230000      -3.30904600      -2.75215800       1.90373500      -3.51963054      -2.97556220       2.04962202
Fe       4.54224000       7.44382000       7.03838000       0.17895600      -5.02037800      -8.74618400       0.29561181      -5.26216523      -8.86575424
Fe       4.73272000       8.55832000       8.35561000      -0.10588400       8.96287400       6.54083400      -0.28113551       9.36781742       6.18966213
Fe       7.67285000       2.82429000       2.17742000      -2.12886900      -0.76272600      -2.06587500      -2.10270000      -0.83193869      -1.98477773
Fe       6.74071000       1.77406000       4.33655000       0.47479500       0.50025500      -0.42349800       0.08021409       0.41477772      -0.46000377
Fe       7.16362000       1.61896000       6.68131000       5.11373900       1.83737400       0.70818800       4.72138836       1.64166886       0.64232353
Fe       6.73653000       4.13840000       7.84564000       0.19062300       0.32905600       3.59274800       0.16264150       0.47975057       3.62222514
Fe       6.61248000       5.35948000       2.44590000       0.96755600      -0.77403900      -0.47053600       0.84670316      -0.66303005      -0.47080130
Fe       8.39074000       4.95678000       4.82580000       0.50677700       3.21370700       1.22596300       0.60655225       3.13048978       1.08123460
Fe       6.62275000       6.29700000       6.29237000       0.91106900      -0.58785400       1.74696000       0.82396561      -0.48280455       1.60279175
Fe       8.00875000       8.14674000       2.12563000      -1.25903800      -1.94608200      -3.37077000      -0.86522547      -1.93916673      -3.41788691
Fe       7.96861000       8.10559000       4.08816000       1.24434400       0.03207600       4.40361200       0.71442111       0.04498949       4.54816576
B        3.14587000       1.61638000       2.59818000      -3.96044800      -1.57388800      -2.24367700      -3.98339420      -1.49655903      -2.04126420
B        4.07212000       1.93087000       3.78701000       0.55534200       0.12762300      -3.25123200       0.42111829       0.17612121      -3.18926984
B        2.24412000       1.90783000       4.05913000      -1.80380000      -9.70850100      -5.48536600      -1.85982411      -9.98424140      -5.61479484
B        2.90130000       3.06657000       4.45062000       2.48509300       7.60479000      -1.50334300       2.85573252       7.26312936      -1.52132979
B        2.82587000       3.80138000       5.80651000       0.21675600       2.27927400       3.92227300       0.29323715       2.13977817       3.89576556
B        2.60929000       5.04297000       1.66311000       0.12617300      -0.77075900      -0.46531300      -0.04214736      -0.79525650      -0.43440219
B        2.47198000       4.95014000       4.32601000      -0.76752800      -1.31946700       0.35153300      -0.81348893      -1.21981630       0.39661815
B        2.73354000       7.81887000       7.66829000      -1.47869400      -0.15377200       0.00458000      -1.52418517      -0.16881885       0.21466446
B        5.68071000       2.28134000       7.79544000      -0.95924500       0.41857400       1.11780500      -0.95768689       0.36456368       1.05831674
B        7.77536000       3.70665000       3.76574000      -0.44877700      -1.48394500      -0.38974400      -0.54724723      -1.39660049      -0.06427691
Si       0.79518000       0.92195000       5.77957000      -1.66645900      -4.94136200      -1.10925300      -1.61963149      -5.05100840      -0.95096005
Si       0.88055000       4.20706000       6.73551000       1.15626000       3.58432200      -0.32349000       1.11397312       3.72551517      -0.23231881
Si       1.15025000       6.44729000       2.43826000      -7.77651300      -1.83655100      -1.54918700      -7.85452388      -1.70838644      -1.70824133
Si       2.82820000       3.29548000       0.50208000      -4.05499500       1.58525200       5.32597100      -4.09115481       1.43032414       5.24745037
Si       4.14031000       6.38272000       0.30005000      -2.16949800      -2.44928300       2.57761000      -2.27566432      -2.43222896       2.50310714
Si       3.68345000       6.43010000       5.01209000       3.98893100       0.98565200      -2.13453700       3.85109205       1.16664949      -2.12366511
Si       5.73751000       0.59059000       2.53265000       5.08228400      -4.90021500       2.23852200       5.10549440      -4.87902729       2.49531427
Si       4.51163000       2.47994000       5.36819000       2.60737700      -2.86786400       7.12589500       2.77780734      -2.63933261       7.05425401
Si       6.43436000       3.75222000       5.86206000       1.38008400       0.66155200      -3.64612400       1.53107242       0.74699643      -3.74612709
Si       8.06432000       7.52318000       8.55473000       2.36409700      -3.06603600      11.34847700       2.72438459      -2.78069447      11.16107034
18
Lattice="6.5 0.0 0.0 0.0 6.5 0.0 0.0 0.0 6.5" Properties=species:S:1:pos:R:3:REF_forces:R:3:MACE_forces:R:3 config_type=Fe12B3Si3 REF_energy=-113.87843945 MACE_energy=-113.06839496379317 pbc="T T T"
Fe       5.40234000       5.43492000       1.53729000      -1.39532100       2.04028400       0.71142300      -1.02461344       1.87148767       0.69999795
Fe       2.09750000       2.10361000       0.54730000       2.35673700      -0.33103000       1.27254800       2.52626719      -0.07675136       1.25807440
Fe       2.84360000       1.73250000       3.81271000       2.28004000      -1.18251600      -0.27344700       2.19928605      -0.97766468      -0.20667507
Fe       0.77541000       4.93717000       1.04317000       1.56096300      -3.83372900       1.76362000       1.29102969      -3.44162674       1.54359269
Fe       0.07665000       3.70431000       3.74351000      -0.75952900      -0.39175400      -2.23189700      -1.14144404      -0.47921657      -2.27228018
Fe       4.77171000       3.58949000       4.78220000      -1.99219600      -4.62409700       0.48420500      -1.67825979      -4.51210168       0.38942072
Fe       4.12430000       1.49867000       1.46476000       0.29771700      -2.38794700       0.28396300       0.29531318      -2.65107604       0.10500493
Fe       0.95387000       5.17746000       5.28728000      -0.57085000      -0.50160400      -1.80733600      -0.94194546      -0.69393750      -1.33960807
Fe       1.93602000       3.09888000       2.36598000      -0.08855100       0.43128300      -0.27209000      -0.21146612       0.52641096      -0.53121844
Fe       5.69037000       1.28357000       4.20026000      -0.40866000      -0.49067900       0.18976600      -0.79163251      -0.29627342       0.24622028
Fe       1.94321000       2.86141000       5.39871000      -0.55906500       0.73218900      -1.80086600      -0.49989700       0.70356434      -1.91902967
Fe       4.33122000       5.38124000       5.25469000      -0.73272900       4.56545400       1.52017900      -0.59036373       4.34004626       1.53782713
B        0.37598000       1.64060000       1.21420000      -3.21263000       2.85095800       0.76078000      -3.03047735       2.71757351       0.86794357
B        1.88110000       4.04794000       3.96741000       2.48956600       2.45119300      -0.32261600       2.67861218       2.37865189      -0.29265103
B        3.63878000       0.94242000       5.41981000      -0.01444500       0.67937600       0.95779200       0.14568219       0.82345431       1.10549321
Si       1.19380000       0.26963000       0.19686000       0.54051800       0.24528300      -1.93219100       0.65390314      -0.02351550      -1.87142470
Si       4.57825000       3.47658000       1.16117000       0.15934200       1.26766700      -0.81102600       0.18628404       1.46666587      -0.76883731
Si       1.09558000       0.76720000       2.75124000       0.04909300      -1.52033200       1.50719200      -0.06627823      -1.67569133       1.44814961
54
Lattice="8.579999685 0.0 0.0 0.0 8.579999685 0.0 0.0 0.0 8.5799996" Properties=species:S:1:pos:R:3:REF_forces:R:3:MACE_forces:R:3 config_type=Fe34B10Si10 REF_energy=-356.0869274 MACE_energy=-356.94848812950346 pbc="T T T"
Fe       0.92877000       1.08311000       2.12831000      -0.53214900      -1.15432400       0.53007800      -0.70065546      -1.20466948       0.41443722
Fe       1.12794000       0.45096000       7.37327000      -2.86345100       2.18226700       1.45805300      -2.84079926       1.97587806       1.45661854
Fe       0.91289000       3.61082000       1.96264000      -1.66570100       0.50807500      -4.76654600      -1.68890263       0.34652815      -4.78879213
Fe       0.97242000       3.25012000       3.83975000      -0.85629000      -1.23507100      -0.91491200      -1.07124307      -1.21739397      -0.23262828
Fe       1.43574000       3.84332000       5.84621000      -1.94378300      -0.72872400       4.94145300      -2.07476890      -0.59113506       4.67222254
Fe       0.45897000       5.99881000       1.32384000       1.86679900       1.45939200      -0.33976700       1.64057557       1.55405072      -0.15931452
Fe       0.05714000       6.25044000       6.01250000       0.66851500      -0.88142700       1.67028200       0.72061906      -0.77126245       1.74631689
Fe       1.87526000       7.05991000       7.27744000      -5.90957000       6.81146600       5.95768600      -5.75852544       7.20758332       5.96295079
Fe       4.21220000       0.80536000       3.81626000       0.44958900      -1.97725700       0.54591300       0.51565962      -1.90368399       0.44703399
Fe       2.64196000       0.75311000       5.88605000       0.80305000      -0.92688600      -1.50973400       0.54350060      -1.05722615      -1.57747773
Fe       2.51735000       4.27963000       7.86001000      -0.17185400       2.88247300       0.00075600       0.00510014       2.96244437       0.22329244
Fe       2.46175000       4.76211000       4.38544000       2.27245000       6.36429500      -0.60000700       2.18331857       6.31929716      -0.65134862
Fe       3.99132000       4.46692000       6.09268000      -0.21521200      -1.96607600      -0.25853400      -0.18452930      -2.22388036      -0.19299237
Fe       4.03283000       6.20484000       2.50717000       0.32509400      -1.83048700       1.07686200       0.41997946      -1.75918619       1.10759453
Fe       2.62183000       8.12097000       1.25125000      -5.45108600      -1.04608100      -0.88869000      -5.51436880      -1.09921806      -0.62649823
Fe       2.34208000       7.49949000       3.33705000      -1.45221900       0.10179900       1.96325000      -1.24003381       0.19352563       1.62022835
Fe       4.67554000       0.98699000       8.35162000       1.97529500       0.95938300       0.07305200       1.67140004       0.83083833       0.35470205
Fe       4.68615000       2.28426000       1.60336000       6.03713100       4.39249100       1.56082500       6.22860442       4.33347365       1.17105307
Fe       4.95897000       4.28949000       0.91503000       1.24258400       3.77490300      -1.07876200       0.76388447       3.52985313      -1.25592908
Fe       5.62605000       3.84953000       3.25301000      -4.56775200       3.43217100       2.09526400      -4.56048003       3.53188151       1.90197297
Fe       5.63153000       5.70233000       4.67966000       0.04558900       0.36352900      -0.74034800       0.02325120      -0.05316876      -0.59784907
Fe       5.00954000       6.14620000       6.89198000       4.51113600      -2.60361300       1.43664400       4.56770554      -2.38244515       1.42390869
Fe       5.34723000       7.32984000       0.56425000       3.41130600      -7.55812200      -7.44238600       3.40603254      -7.00881387      -7.21289124
Fe       4.57141000       8.20633000       1.67615000      -2.51651100       6.57056000       9.11650700      -2.66310120       6.08065411       8.66674120
Fe       5.67084000       7.83697000       6.02451000      -0.02983000       3.57151200       0.33120700      -0.07589215       3.64450145       0.36759952
Fe       7.65837000       1.05332000       0.64336000       1.95813700       2.93603900      -3.62028800       1.88630259       2.95193596      -3.53482066
Fe       7.23579000       1.49494000       3.62009000       0.88838800      -1.50203300       3.00240400       0.95795117      -1.53549538       3.06753328
Fe       6.96409000       1.59543000       6.70415000       0.40175100      -2.57633900      -0.54943900       0.51831579      -2.54350965      -0.54613183
Fe       6.97946000       3.05325000       2.27831000       3.01329100      -2.85779700      -7.80747400       2.45889717      -2.94477845      -7.24844549
Fe       7.05854000       3.62734000       7.13255000       0.94483300       2.42104600       2.56329500       1.03008277       2.47094763       2.49207844
Fe       7.47490000       4.49325000       0.92243000      -3.13561000       0.06366500       0.11142200      -2.90559282       0.45060204      -0.24188780
Fe       7.76499000       5.40883000       4.05655000       3.42051700      -2.49950500       1.10150300       3.50238044      -2.66469251       1.11551020
Fe       6.91686000       6.16423000       2.38917000      -4.34160700       0.52717700      -3.24358900      -4.32164117       0.61038276      -3.19592746
Fe       7.31773000       7.39473000       4.73130000      -1.41907300       3.06948200       1.38572900      -1.45531061       3.04182635       1.37498035
B        1.63947000       5.44017000       2.85377000      -1.37965300       1.67099600      -0.34434500      -1.50791900       1.78062410      -0.61273940
B        3.47444000       1.29905000       1.69513000      -6.04542900      -7.46227000      -1.52467000      -5.88906935      -7.20051897      -1.15397209
B        2.31673000       1.42955000       3.77944000      -1.85652800      -2.14982900       3.21956500      -1.73293546      -1.99175349       3.45857244
B        3.17088000       0.01260000       8.16689000      -2.14308300      -0.12737100      -3.63430700      -1.99953396       0.11142564      -3.57951484
B        2.48887000       2.23189000       2.44876000      -1.30373000       3.96631200      -0.94871100      -0.89607012       3.84948106      -1.28981444
B        3.55016000       3.21990000       0.17024000       2.13469500      -3.52588700       0.23974700       2.16370747      -3.43770259       0.29298592
B        3.12966000       3.07291000       4.24572000      -6.99085300       0.34377600      -0.16579100      -7.13859513       0.13290915      -0.20976044
B        2.38358000       5.95301000       6.34325000       2.25901800      -8.76611800      -6.31465800       2.19089511      -9.22060342      -6.57317053
B        4.46260000       2.62992000       4.23823000       7.08507900      -1.75449200       0.40993300       7.20724287      -1.81798050       0.45035953
B        7.51183000       3.59374000       3.85724000       1.49621300      -1.20378300       3.39561400       1.53617494      -1.09531934       3.24635864
Si       0.50050000       1.66927000       5.10425000      -1.02554400      -2.67263500       2.61432900      -0.80475679      -2.91409560       2.58213250
Si       0.41923000       4.50138000       8.15701000       0.82744200      -0.47721100      -2.57541600       1.06172307      -0.41625888      -2.82373271
Si       2.90131000       4.25049000       1.93860000       2.71957100       0.04497600      -0.88170100       2.90808630      -0.02705340      -1.08695186
Si       3.74353000       6.85388000       5.19884000      -1.20766000       1.80214700      -2.20114300      -1.07348494       2.03897015      -2.16655174
Si       3.54209000       6.47938000       8.21357000      -0.45014500      -1.75854100       4.24377300      -0.54292121      -2.00472375       4.45143263
Si       4.55252000       1.74669000       6.40118000       0.28733400       0.20348600      -1.69136000       0.26610776       0.15843953      -1.65524763
Si       5.87020000       3.30923000       5.41310000       1.93974000       0.55942400      -1.14043100       1.57591920       0.76033281      -1.09227885
Si       6.68392000       0.09389000       2.07850000      -2.78148600      -1.30329400       2.70552900      -2.47415880      -1.23668976       2.82626600
Si       7.30980000       7.36953000       0.08595000       4.18267400      -0.22507900      -1.67891000       4.12299841      -0.52071692      -1.68037876
Si       8.41387000       7.50606000       2.97540000       5.08859000       1.78741200      -0.88875800       5.03887313       1.97558937      -0.90783492
54
Lattice="8.579999685 0.0 0.0 0.0 8.579999685 0.0 0.0 0.0 8.5799996" Properties=species:S:1:pos:R:3:REF_forces:R:3:MACE_forces:R:3 config_type=Fe34B10Si10 REF_energy=-359.84864784 MACE_energy=-360.29408850752907 pbc="T T T"
Fe       0.39531000       2.37288000       0.87042000       3.27925500       2.43832800      -1.60261100       3.21306329       2.68205563      -1.78025844
Fe       0.75383000       1.65209000       3.11094000       1.30783500      -0.34615400      -0.09267000       1.28430048      -0.84813315       0.13947712
Fe       1.33201000       3.79282000       7.26231000      -2.40668100      -1.18131200       0.32245500      -2.53418962      -1.08986064       0.23509329
Fe       0.64436000       4.41396000       2.97573000       2.42004200      -2.26182600       0.38963900       2.48691483      -2.09879193       0.26196110
Fe       0.14751000       6.42079000       3.51005000      -3.07002100       1.32407200      -2.30638400      -3.10886663       1.33486002      -2.46474360