54
Lattice="8.579999685 0.0 0.0 0.0 8.579999685 0.0 0.0 0.0 8.5799996" Properties=species:S:1:pos:R:3:REF_forces:R:3:MACE_forces:R:3 config_type=Fe34B10Si10 REF_energy=-352.89092233 MACE_energy=-352.9444643776246 pbc="T T T"
Fe       1.46495000       0.71583000       1.12880000       3.73230100      -3.41607500      -3.76209700       3.75776757      -3.53375736      -3.73793391
Fe       0.56244000       2.07917000       1.96452000      -3.31290700       4.06628900       2.54508600      -3.38312419       4.13213188       2.42995785
Fe       0.86636000       2.12990000       5.00906000     -10.85567700      -2.87102900      12.20968700     -10.93531743      -2.94449075      12.15465556
Fe       0.24697000       2.61233000       7.83061000      -0.37811800      -2.03816900      -0.08744800      -0.30691808      -2.04969290       0.14832614
Fe       0.35437000       4.66395000       8.16447000      -1.30300600       1.62250000       0.84662400      -1.36488591       1.62942741       0.80701994
Fe       0.83543000       8.00840000       3.01492000       5.54921000      -2.55787300       0.52513800       5.52393201      -2.63177941       0.44757028
Fe       2.03952000       7.84431000       6.63062000      -4.28706100       1.82495200      -1.68802900      -4.04354206       2.01443040      -1.68703632
Fe       3.34318000       0.11090000       2.96052000      -0.46571400      -0.35056300       0.37864800      -0.45697426      -0.19244738       0.50280642
Fe       3.26317000       2.11539000       1.48699000      -3.47884800      -0.03222100       0.61542300      -3.32084511      -0.28549863       0.23694661
Fe       4.14313000       2.75755000       3.31065000      -0.71378000      -2.73118300       1.93004800      -0.66156080      -2.49768263       1.93156269
Fe       2.55051000       2.67374000       7.19710000      -2.55215900      -0.93589000       1.77261600      -2.29785621      -1.03311759       1.71384345
Fe       3.61327000       2.86500000       5.46497000       1.55763200       0.20514300      -0.56676300       1.47692734       0.31229812      -0.26509277
Fe       2.62400000       4.72550000       1.39174000      -1.08585200      -1.19598700       0.59645400      -1.37475269      -0.89755494       0.74103387
Fe       2.20317000       5.21693000       3.87451000      -3.92870900      -4.38103900      -4.92199500      -3.89705252      -4.40349006      -5.05463133
Fe       3.93082000       4.37819000       8.08226000       1.07616800       0.44807800      -0.99700400       1.08522650       0.27020678      -1.10593496
Fe       2.44961000       7.01753000       1.08943000       0.32119000      -1.55635000       3.27006500       0.46971132      -1.65210109       3.31343505
Fe       3.02500000       6.15780000       5.08193000      -1.08486800       1.64126100       3.95415400      -0.45887775       1.62360167       3.96864978
Fe       5.77712000       0.44616000       0.16142000      -2.43333700       0.07175000       4.13474700      -2.39430169       0.42773884       4.18154052
Fe       5.66964000       0.14892000       2.95259000      -3.67617900       1.90971100       0.12919700      -3.69370097       1.66386848       0.28566291
Fe       5.39484000       2.66317000       1.55162000       4.08183700      -3.39937100       3.88213200       3.90923009      -3.76206920       4.07115678
Fe       5.91309000       3.40423000       8.31953000       8.90196200       5.48305700      -2.72562400       8.70373899       5.52750090      -2.77774075
Fe       4.96126000       4.63305000       3.41410000      -3.60269200      -2.00302700       2.25051900      -3.84136675      -2.23820801       2.37799242
Fe       5.11347000       6.81217000       1.78872000      -0.87770500       0.06714300      -1.61156800      -0.64622019       0.10097590      -1.60382744
Fe       5.00950000       6.45991000       8.24507000      -2.30619500      -0.19808200      -1.52355700      -2.24396720      -0.05270391      -1.63051603
Fe       4.64263000       7.71190000       5.75084000       2.50156800       4.23919200      -1.55456800       2.56972973       4.23333889      -1.69565696
Fe       7.32285000       0.33022000       5.03535000      -0.99210900      -0.59745100       4.73628300      -1.04878685      -0.38252549       4.73262969
Fe       6.75330000       1.32958000       7.05071000       0.53851300       2.01290400       0.36400700       0.45208652       1.87757403       0.35951390
Fe       6.82686000       2.53028000       3.66692000      -0.08907100      -0.12987400      -0.26318300       0.04519279      -0.20574842      -0.24651110
Fe       6.83617000       5.56618000       0.59386000       1.74434500       1.47371700      -3.32847200       1.82117401       1.90249693      -3.41686682
Fe       8.27091000       4.29855000       2.87718000       3.23308900       0.33980500       1.37352500       3.14242429       0.20161708       1.40538404
Fe       6.58774000       4.90718000       4.97515000      -1.87594500       0.58060600      -0.05143700      -2.08212081       0.50040080      -0.65205663
Fe       6.86773000       6.79187000       3.27473000       1.52763600      -2.76254700       0.67579100       1.45016816      -2.44256798       0.34072692
Fe       8.09083000       8.29691000       0.84396000      -4.18921500      -1.95965200       9.56442300      -4.33286986      -2.31546789       9.51481496
Fe       6.62133000       7.67903000       7.47205000      -3.65417600       1.51975600      -3.32990400      -3.92978902       1.32378349      -3.45648839
B        3.45077000       6.81738000       6.75435000       2.04131500      -2.79808300       3.80923700       1.88177502      -2.77499149       3.96163984
B        4.67436000       1.10514000       4.73414000       0.75036200       0.95391600      -0.52852700       0.83203042       0.88039532      -0.40280634
B        6.18153000       2.20088000       5.47737000      -4.49435700      -3.20609500      -2.27763700      -4.68390091      -3.13668721      -2.36791120
B        5.08133000       4.10197000       6.35983000       0.35152900       0.25548900      -0.65354500       0.56094176       0.36714665      -0.63211515
B        4.48663000       4.29393000       1.40792000      -0.27448100       1.04603100       0.21283300      -0.17528294       1.19067352       0.24364372
B        4.96286000       5.88068000       6.14703000       0.60492000      -1.85032800       0.29314600       0.54095712      -1.91982143       0.18156400
B        8.17242000       5.65216000       5.55863000       1.00443800       0.65677900      -0.69824300       0.97283138       0.80227041      -0.34814703
B        7.98743000       6.92663000       6.60530000       5.86774900       2.58695800      -4.05103700       5.80798764       2.37565565      -3.75810143
B        7.10769000       5.72812000       6.91109000      -2.33709700      -3.34606800       1.34633400      -2.14406865      -3.41635158       1.73829279
B        7.81665000       6.81498000       8.33858000       5.04350100      -2.41043400       0.97359300       5.14060009      -2.67641941       0.56983095
Si       0.06983000       0.14925000       7.74742000       4.12649000       2.60901100      -8.87608100       4.07498697       2.59526927      -8.70876096
Si       1.93337000       2.41223000       3.74634000      10.14534600       2.98113100     -12.18526000      10.20925862       3.07999877     -11.98810421
Si       0.75978000       6.02813000       1.69309000      -4.13401100      -0.74920300       1.02787300      -4.13432566      -0.82344584       0.97264761
Si       2.22023000       5.10313000       7.16329000      -1.58663400       1.19675500      -1.89967800      -1.63547664       1.14763021      -1.94120275
Si       3.27754000       8.17117000       8.35443000       4.04667900       4.58101600      -2.24829100       3.94032364       4.59918504      -2.41198777
Si       4.48145000       2.18337000       8.34202000      -5.72220500      -5.96162700      -4.99603400      -5.55494958      -5.96694601      -5.10343817
Si       6.36439000       4.54151000       2.12641000       2.28764700      -2.33178900       1.39384200       2.48682933      -2.10882971       1.35350102
Si       4.52267000       6.51460000       3.75633000       0.42177200       5.22743800       1.25328700       0.12356098       5.32420690       1.33573866
Si       7.68278000       0.22257000       3.11016000      -0.17295300       4.89916800      -3.86478000      -0.27275279       4.79735328      -3.96122545
Si       7.35363000       3.38410000       6.13231000       4.40786200       1.27045000       2.62604800       4.33619522       1.44321971       2.93200548
54
Lattice="8.579999685 0.0 0.0 0.0 8.579999685 0.0 0.0 0.0 8.5799996" Properties=species:S:1:pos:R:3:REF_forces:R:3:MACE_forces:R:3 config_type=Fe34B10Si10 REF_energy=-354.71875992 MACE_energy=-355.064290154436 pbc="T T T"
Fe       0.43313000       1.19321000       2.96848000       1.47291300       2.99028000       0.61180900       1.50682890       2.96269230       0.32458919
Fe       0.91365000       1.12516000       8.09995000       2.76260400      -2.00335600       1.20968300       2.41510021      -2.05317772       1.07753911
Fe       1.17142000       2.67870000       5.23446000      -1.90323000       6.04651700       0.58026800      -1.75062413       6.09671360       0.43333706
Fe       0.60772000       3.85484000       0.87278000       2.66909500       4.89444800       4.53699300       2.51730044       4.92716639       4.14058447
Fe       1.41565000       3.44858000       3.01161000      -0.29549500       2.03729500      -0.74017400      -0.09035610       1.90073357      -0.68957873
Fe       0.04226000       2.91249000       8.09734000      -3.39897200      -2.84207300      -2.69442200      -2.77577964      -2.79621638      -2.27692267
Fe       1.33282000       7.09057000       5.22634000      -0.45239700      -1.35392500       0.92503500      -0.22241980      -1.50819535       0.96059812
Fe       2.06045000       7.92051000       0.98063000      -3.11321000      -0.30108300      -2.49280600      -3.06835163      -0.40488231      -2.34914328
Fe       2.03627000       8.24295000       3.50701000      -1.42216600       4.38122900       0.88517600      -1.44087494       4.12785601       0.66808140
Fe       0.01253000       8.02686000       7.00667000       2.58679700       0.98610200     -11.80201700       2.45422049       0.94345820     -11.85260600
Fe       3.00353000       0.57289000       6.13981000      -1.03922300       0.18357300       0.93137300      -0.83174939       0.10395176       1.00625580
Fe       3.69949000       2.65196000       7.51811000       2.76433000      -4.34399200      -3.80269000       2.59993959      -4.10541195      -3.68788729
Fe       2.94478000       6.44154000       3.03987000       7.21319500      -3.66655800      -1.17614100       7.03917845      -3.46423979      -1.00327747
Fe       2.94309000       5.75189000       6.64956000      -6.24071800      -0.74678300       3.86021800      -6.49823504      -0.65991440       3.83524235
Fe       3.71160000       8.39321000       1.86324000       2.24845700      -0.43546600       0.28887200       2.14710552      -0.17644651       0.66259184
Fe       4.07810000       8.43915000       4.32840000       2.88035800       1.28304800      -0.49181300       2.85711121       1.39033451      -0.78171192
Fe       5.57499000       0.73262000       6.31633000      -3.12774100      -1.68249800      -0.98058200      -2.82290321      -1.64412218      -0.85594839
Fe       4.70712000       1.94493000       1.65492000      -2.04675700       4.97917500      -3.67899600      -2.10374664       4.74151348      -3.53401115
Fe       4.73401000       4.18392000       1.24748000       0.71501700       1.80608500      -0.06999200       0.68510403       2.01106476      -0.11618882
Fe       4.56687000       4.22266000       4.39618000       0.73801700       3.32591500      -2.10569900       0.45611733       3.14532992      -2.18320754
Fe       4.51224000       4.61167000       7.05684000       2.53211900      -0.41024200       0.53825400       2.96850011      -0.74635481       0.48929768
Fe       6.32808000       6.81945000       4.24288000      -3.20445400      -0.33519400      -1.28892300      -2.81609992      -0.25625148      -1.12843456
Fe       6.22240000       7.17309000       0.16230000      -3.30904600      -2.75215800       1.90373500      -3.48429358      -3.07163024       2.09062460
Fe       4.54224000       7.44382000       7.03838000       0.17895600      -5.02037800      -8.74618400       0.26807610      -5.24088260      -8.93303776
Fe       4.73272000       8.55832000       8.35561000      -0.10588400       8.96287400       6.54083400      -0.17304539       9.48626715       6.21881698
Fe       7.67285000       2.82429000       2.17742000      -2.12886900      -0.76272600      -2.06587500      -2.06310413      -0.79699551      -1.99036383
Fe       6.74071000       1.77406000       4.33655000       0.47479500       0.50025500      -0.42349800       0.08125401       0.47618423      -0.49373792
Fe       7.16362000       1.61896000       6.68131000       5.11373900       1.83737400       0.70818800       4.76623247       1.69461649       0.63463106
Fe       6.73653000       4.13840000       7.84564000       0.19062300       0.32905600       3.59274800       0.09559585       0.50556679       3.64149294
Fe       6.61248000       5.35948000       2.44590000       0.96755600      -0.77403900      -0.47053600       0.84795612      -0.69304596      -0.51283199
Fe       8.39074000       4.95678000       4.82580000       0.50677700       3.21370700       1.22596300       0.56857640       3.10016266       1.10815210
Fe       6.62275000       6.29700000       6.29237000       0.91106900      -0.58785400       1.74696000       0.78466520      -0.46497337       1.61206950
Fe       8.00875000       8.14674000       2.12563000      -1.25903800      -1.94608200      -3.37077000      -0.88707687      -1.93689842      -3.39499273
Fe       7.96861000       8.10559000       4.08816000       1.24434400       0.03207600       4.40361200       0.69995253      -0.03148088       4.48865862
B        3.14587000       1.61638000       2.59818000      -3.96044800      -1.57388800      -2.24367700      -3.97190685      -1.48377071      -1.97986445
B        4.07212000       1.93087000       3.78701000       0.55534200       0.12762300      -3.25123200       0.43196959       0.07628506      -3.26262895
B        2.24412000       1.90783000       4.05913000      -1.80380000      -9.70850100      -5.48536600      -1.84835524      -9.89245130      -5.57037873
B        2.90130000       3.06657000       4.45062000       2.48509300       7.60479000      -1.50334300       2.88816953       7.35296883      -1.45142633
B        2.82587000       3.80138000       5.80651000       0.21675600       2.27927400       3.92227300       0.35193202       2.13217030       3.82402182
B        2.60929000       5.04297000       1.66311000       0.12617300      -0.77075900      -0.46531300      -0.08112383      -0.74312286      -0.35365834
B        2.47198000       4.95014000       4.32601000      -0.76752800      -1.31946700       0.35153300      -0.80531966      -1.23184622       0.28771263
B        2.73354000       7.81887000       7.66829000      -1.47869400      -0.15377200       0.00458000      -1.53062298      -0.18920824       0.16910291
B        5.68071000       2.28134000       7.79544000      -0.95924500       0.41857400       1.11780500      -0.91467954       0.33997398       1.05938338
B        7.77536000       3.70665000       3.76574000      -0.44877700      -1.48394500      -0.38974400      -0.54216831      -1.40837301      -0.02921064
Si       0.79518000       0.92195000       5.77957000      -1.66645900      -4.94136200      -1.10925300      -1.61999040      -5.13060015      -0.94750477
Si       0.88055000       4.20706000       6.73551000       1.15626000       3.58432200      -0.32349000       1.10190977       3.78436793      -0.18146204
Si       1.15025000       6.44729000       2.43826000      -7.77651300      -1.83655100      -1.54918700      -7.91403971      -1.74775116      -1.73378684
Si       2.82820000       3.29548000       0.50208000      -4.05499500       1.58525200       5.32597100      -4.14027114       1.50322979       5.27823009
Si       4.14031000       6.38272000       0.30005000      -2.16949800      -2.44928300       2.57761000      -2.19276963      -2.50838381       2.56147171
Si       3.68345000       6.43010000       5.01209000       3.98893100       0.98565200      -2.13453700       3.85659001       1.19240413      -2.07161645
Si       5.73751000       0.59059000       2.53265000       5.08228400      -4.90021500       2.23852200       5.19025713      -4.93863126       2.49896164
Si       4.51163000       2.47994000       5.36819000       2.60737700      -2.86786400       7.12589500       2.77178128      -2.65869388       6.97578273
Si       6.43436000       3.75222000       5.86206000       1.38008400       0.66155200      -3.64612400       1.59014070       0.80653831      -3.77866219
Si       8.06432000       7.52318000       8.55473000       2.36409700      -3.06603600      11.34847700       2.64834270      -2.81759767      11.09685206
18
Lattice="6.5 0.0 0.0 0.0 6.5 0.0 0.0 0.0 6.5" Properties=species:S:1:pos:R:3:REF_forces:R:3:MACE_forces:R:3 config_type=Fe12B3Si3 REF_energy=-113.87843945 MACE_energy=-113.31969590748841 pbc="T T T"
Fe       5.40234000       5.43492000       1.53729000      -1.39532100       2.04028400       0.71142300      -1.18830657       2.00664788       0.71240691
Fe       2.09750000       2.10361000       0.54730000       2.35673700      -0.33103000       1.27254800       2.51741266      -0.11215473       1.08035928
Fe       2.84360000       1.73250000       3.81271000       2.28004000      -1.18251600      -0.27344700       2.20035280      -1.05356890      -0.14898814
Fe       0.77541000       4.93717000       1.04317000       1.56096300      -3.83372900       1.76362000       1.46758597      -3.63314584       1.48543531
Fe       0.07665000       3.70431000       3.74351000      -0.75952900      -0.39175400      -2.23189700      -0.97685519      -0.40319852      -2.29601065
Fe       4.77171000       3.58949000       4.78220000      -1.99219600      -4.62409700       0.48420500      -1.81075822      -4.63099449       0.43652692
Fe       4.12430000       1.49867000       1.46476000       0.29771700      -2.38794700       0.28396300       0.31945267      -2.67644399       0.13765904
Fe       0.95387000       5.17746000       5.28728000      -0.57085000      -0.50160400      -1.80733600      -0.94309534      -0.69667016      -1.30794013
Fe       1.93602000       3.09888000       2.36598000      -0.08855100       0.43128300      -0.27209000      -0.12277322       0.61313788      -0.38462613
Fe       5.69037000       1.28357000       4.20026000      -0.40866000      -0.49067900       0.18976600      -0.64400371      -0.27590155       0.15199195
Fe       1.94321000       2.86141000       5.39871000      -0.55906500       0.73218900      -1.80086600      -0.63404045       0.82769681      -1.84625360
Fe       4.33122000       5.38124000       5.25469000      -0.73272900       4.56545400       1.52017900      -0.73718929       4.44039411       1.52971693
B        0.37598000       1.64060000       1.21420000      -3.21263000       2.85095800       0.76078000      -3.11071426       2.71052304       0.93784961
B        1.88110000       4.04794000       3.96741000       2.48956600       2.45119300      -0.32261600       2.68163364       2.27825685      -0.39836942
B        3.63878000       0.94242000       5.41981000      -0.01444500       0.67937600       0.95779200       0.15365960       0.81240301       1.03428074
Si       1.19380000       0.26963000       0.19686000       0.54051800       0.24528300      -1.93219100       0.68322439       0.02924012      -1.91745057
Si       4.57825000       3.47658000       1.16117000       0.15934200       1.26766700      -0.81102600       0.19699505       1.41996328      -0.71319251
Si       1.09558000       0.76720000       2.75124000       0.04909300      -1.52033200       1.50719200      -0.05258052      -1.65618481       1.50660446
54
Lattice="8.579999685 0.0 0.0 0.0 8.579999685 0.0 0.0 0.0 8.5799996" Properties=species:S:1:pos:R:3:REF_forces:R:3:MACE_forces:R:3 config_type=Fe34B10Si10 REF_energy=-356.0869274 MACE_energy=-356.5208785120768 pbc="T T T"
Fe       0.92877000       1.08311000       2.12831000      -0.53214900      -1.15432400       0.53007800      -0.68437630      -1.24638296       0.39167614
Fe       1.12794000       0.45096000       7.37327000      -2.86345100       2.18226700       1.45805300      -2.85973145       2.01710037       1.46137766
Fe       0.91289000       3.61082000       1.96264000      -1.66570100       0.50807500      -4.76654600      -1.66178385       0.24924842      -4.72677998
Fe       0.97242000       3.25012000       3.83975000      -0.85629000      -1.23507100      -0.91491200      -1.07356067      -1.16493709      -0.45131656
Fe       1.43574000       3.84332000       5.84621000      -1.94378300      -0.72872400       4.94145300      -2.06830944      -0.51181655       4.70532546
Fe       0.45897000       5.99881000       1.32384000       1.86679900       1.45939200      -0.33976700       1.62531487       1.56896163      -0.20566850
Fe       0.05714000       6.25044000       6.01250000       0.66851500      -0.88142700       1.67028200       0.74962123      -0.74420563       1.81442025
Fe       1.87526000       7.05991000       7.27744000      -5.90957000       6.81146600       5.95768600      -5.77250574       7.19651555       5.92398034
Fe       4.21220000       0.80536000       3.81626000       0.44958900      -1.97725700       0.54591300       0.57454833      -1.90170612       0.43285768
Fe       2.64196000       0.75311000       5.88605000       0.80305000      -0.92688600      -1.50973400       0.62919160      -1.09316171      -1.56295236
Fe       2.51735000       4.27963000       7.86001000      -0.17185400       2.88247300       0.00075600      -0.00841578       2.98314816       0.39594414
Fe       2.46175000       4.76211000       4.38544000       2.27245000       6.36429500      -0.60000700       2.26068837       6.39581356      -0.53738649
Fe       3.99132000       4.46692000       6.09268000      -0.21521200      -1.96607600      -0.25853400      -0.23987132      -2.12627138      -0.16137401
Fe       4.03283000       6.20484000       2.50717000       0.32509400      -1.83048700       1.07686200       0.45494818      -1.70172824       1.17767945
Fe       2.62183000       8.12097000       1.25125000      -5.45108600      -1.04608100      -0.88869000      -5.55884293      -1.01155918      -0.55422716
Fe       2.34208000       7.49949000       3.33705000      -1.45221900       0.10179900       1.96325000      -1.30233326       0.22367656       1.58355634
Fe       4.67554000       0.98699000       8.35162000       1.97529500       0.95938300       0.07305200       1.80501550       0.79455984       0.45242474
Fe       4.68615000       2.28426000       1.60336000       6.03713100       4.39249100       1.56082500       6.18969587       4.33046104       1.15646238
Fe       4.95897000       4.28949000       0.91503000       1.24258400       3.77490300      -1.07876200       0.62385108       3.40186471      -1.22962322
Fe       5.62605000       3.84953000       3.25301000      -4.56775200       3.43217100       2.09526400      -4.62246903       3.47170698       1.94505715
Fe       5.63153000       5.70233000       4.67966000       0.04558900       0.36352900      -0.74034800       0.11540195      -0.08449242      -0.61239045
Fe       5.00954000       6.14620000       6.89198000       4.51113600      -2.60361300       1.43664400       4.51001185      -2.42852239       1.35240915
Fe       5.34723000       7.32984000       0.56425000       3.41130600      -7.55812200      -7.44238600       3.29402021      -7.06541236      -7.28695365
Fe       4.57141000       8.20633000       1.67615000      -2.51651100       6.57056000       9.11650700      -2.57835443       6.21016989       8.70314791
Fe       5.67084000       7.83697000       6.02451000      -0.02983000       3.57151200       0.33120700      -0.09012793       3.74009184       0.40801212
Fe       7.65837000       1.05332000       0.64336000       1.95813700       2.93603900      -3.62028800       1.89265395       2.97555404      -3.49903701
Fe       7.23579000       1.49494000       3.62009000       0.88838800      -1.50203300       3.00240400       0.98647551      -1.60085244       3.02511679
Fe       6.96409000       1.59543000       6.70415000       0.40175100      -2.57633900      -0.54943900       0.53184437      -2.52837376      -0.52233609
Fe       6.97946000       3.05325000       2.27831000       3.01329100      -2.85779700      -7.80747400       2.48990673      -2.99760836      -7.17985173
Fe       7.05854000       3.62734000       7.13255000       0.94483300       2.42104600       2.56329500       1.06425167       2.45230101       2.50303719
Fe       7.47490000       4.49325000       0.92243000      -3.13561000       0.06366500       0.11142200      -2.92022924       0.41970106      -0.35626524
Fe       7.76499000       5.40883000       4.05655000       3.42051700      -2.49950500       1.10150300       3.47398139      -2.66186444       1.15587090
Fe       6.91686000       6.16423000       2.38917000      -4.34160700       0.52717700      -3.24358900      -4.28012699       0.65214629      -3.16716516
Fe       7.31773000       7.39473000       4.73130000      -1.41907300       3.06948200       1.38572900      -1.38474974       3.07301698       1.28822852
B        1.63947000       5.44017000       2.85377000      -1.37965300       1.67099600      -0.34434500      -1.42337656       1.76032989      -0.57712098
B        3.47444000       1.29905000       1.69513000      -6.04542900      -7.46227000      -1.52467000      -5.88975925      -7.27647959      -1.19885956
B        2.31673000       1.42955000       3.77944000      -1.85652800      -2.14982900       3.21956500      -1.78059056      -1.96598368       3.51080624
B        3.17088000       0.01260000       8.16689000      -2.14308300      -0.12737100      -3.63430700      -2.11995869       0.05945148      -3.57209222
B        2.48887000       2.23189000       2.44876000      -1.30373000       3.96631200      -0.94871100      -0.86510660       3.90737855      -1.24523155
B        3.55016000       3.21990000       0.17024000       2.13469500      -3.52588700       0.23974700       2.09277322      -3.41901860       0.15713904
B        3.12966000       3.07291000       4.24572000      -6.99085300       0.34377600      -0.16579100      -7.16662831       0.00766076      -0.35417324
B        2.38358000       5.95301000       6.34325000       2.25901800      -8.76611800      -6.31465800       2.26237987      -9.20571008      -6.50841907
B        4.46260000       2.62992000       4.23823000       7.08507900      -1.75449200       0.40993300       7.23312356      -1.68832367       0.45972016
B        7.51183000       3.59374000       3.85724000       1.49621300      -1.20378300       3.39561400       1.50530709      -1.11636237       3.32969539
Si       0.50050000       1.66927000       5.10425000      -1.02554400      -2.67263500       2.61432900      -0.86851527      -2.94632819       2.48886214
Si       0.41923000       4.50138000       8.15701000       0.82744200      -0.47721100      -2.57541600       1.08478158      -0.51190518      -2.80479943
Si       2.90131000       4.25049000       1.93860000       2.71957100       0.04497600      -0.88170100       2.95131078      -0.07057877      -1.14497722
Si       3.74353000       6.85388000       5.19884000      -1.20766000       1.80214700      -2.20114300      -1.10079381       1.92100837      -2.19356375
Si       3.54209000       6.47938000       8.21357000      -0.45014500      -1.75854100       4.24377300      -0.58189800      -1.99256392       4.43191220
Si       4.55252000       1.74669000       6.40118000       0.28733400       0.20348600      -1.69136000       0.28346703       0.18114065      -1.74440523
Si       5.87020000       3.30923000       5.41310000       1.93974000       0.55942400      -1.14043100       1.55835911       0.71854351      -1.19214475
Si       6.68392000       0.09389000       2.07850000      -2.78148600      -1.30329400       2.70552900      -2.46257574      -1.20703570       2.84168113
Si       7.30980000       7.36953000       0.08595000       4.18267400      -0.22507900      -1.67891000       4.11991186      -0.47328589      -1.65817194
Si       8.41387000       7.50606000       2.97540000       5.08859000       1.78741200      -0.88875800       5.00215415       2.03091950      -0.84911407
54
Lattice="8.579999685 0.0 0.0 0.0 8.579999685 0.0 0.0 0.0 8.5799996" Properties=species:S:1:pos:R:3:REF_forces:R:3:MACE_forces:R:3 config_type=Fe34B10Si10 REF_energy=-359.84864784 MACE_energy=-359.9953500523864 pbc="T T T"
Fe       0.39531000       2.37288000       0.87042000       3.27925500       2.43832800      -1.60261100       3.23522630       2.54444028      -1.72429683
Fe       0.75383000       1.65209000       3.11094000       1.30783500      -0.34615400      -0.09267000       1.25407516      -0.77138514       0.24255013
Fe       1.33201000       3.79282000       7.26231000      -2.40668100      -1.18131200       0.32245500      -2.55108489      -1.05303289       0.15457126
Fe       0.64436000       4.41396000       2.97573000       2.42004200      -2.26182600       0.38963900       2.47003727      -2.03175004       0.21342168
Fe       0.14751000       6.42079000       3.51005000      -3.07002100       1.32407200      -2.30638400      -3.10226790       1.37929498      -2.55026294