54
Lattice="8.579999685 0.0 0.0 0.0 8.579999685 0.0 0.0 0.0 8.5799996" Properties=species:S:1:pos:R:3:REF_forces:R:3:MACE_forces:R:3 config_type=Fe34B10Si10 REF_energy=-352.89092233 MACE_energy=-352.9487128149676 pbc="T T T"
Fe       1.46495000       0.71583000       1.12880000       3.73230100      -3.41607500      -3.76209700       3.68112635      -3.48955329      -3.54016018
Fe       0.56244000       2.07917000       1.96452000      -3.31290700       4.06628900       2.54508600      -3.27437129       3.94606019       2.28156866
Fe       0.86636000       2.12990000       5.00906000     -10.85567700      -2.87102900      12.20968700     -10.83552837      -2.92985740      12.16332913
Fe       0.24697000       2.61233000       7.83061000      -0.37811800      -2.03816900      -0.08744800      -0.40078549      -1.92170396       0.07935104
Fe       0.35437000       4.66395000       8.16447000      -1.30300600       1.62250000       0.84662400      -1.38838237       1.68868161       0.79834766
Fe       0.83543000       8.00840000       3.01492000       5.54921000      -2.55787300       0.52513800       5.71125298      -2.52858316       0.40940647
Fe       2.03952000       7.84431000       6.63062000      -4.28706100       1.82495200      -1.68802900      -4.08453545       1.97617025      -1.65412613
Fe       3.34318000       0.11090000       2.96052000      -0.46571400      -0.35056300       0.37864800      -0.51469038      -0.23490495       0.45644300
Fe       3.26317000       2.11539000       1.48699000      -3.47884800      -0.03222100       0.61542300      -3.38268816      -0.26637222       0.21085721
Fe       4.14313000       2.75755000       3.31065000      -0.71378000      -2.73118300       1.93004800      -0.60012553      -2.43150336       1.90248348
Fe       2.55051000       2.67374000       7.19710000      -2.55215900      -0.93589000       1.77261600      -2.32065337      -1.09719562       1.73857586
Fe       3.61327000       2.86500000       5.46497000       1.55763200       0.20514300      -0.56676300       1.50937599       0.29309649      -0.29600454
Fe       2.62400000       4.72550000       1.39174000      -1.08585200      -1.19598700       0.59645400      -1.37909429      -0.98700067       0.71019377
Fe       2.20317000       5.21693000       3.87451000      -3.92870900      -4.38103900      -4.92199500      -3.89629810      -4.36910056      -5.00638079
Fe       3.93082000       4.37819000       8.08226000       1.07616800       0.44807800      -0.99700400       0.97973514       0.31313759      -0.98369345
Fe       2.44961000       7.01753000       1.08943000       0.32119000      -1.55635000       3.27006500       0.42712812      -1.58581315       3.28064838
Fe       3.02500000       6.15780000       5.08193000      -1.08486800       1.64126100       3.95415400      -0.55481824       1.67656977       4.09950650
Fe       5.77712000       0.44616000       0.16142000      -2.43333700       0.07175000       4.13474700      -2.44572398       0.39592881       4.21687139
Fe       5.66964000       0.14892000       2.95259000      -3.67617900       1.90971100       0.12919700      -3.69603183       1.62364556       0.32596619
Fe       5.39484000       2.66317000       1.55162000       4.08183700      -3.39937100       3.88213200       4.06678906      -3.67135706       4.03818047
Fe       5.91309000       3.40423000       8.31953000       8.90196200       5.48305700      -2.72562400       8.63266956       5.38458585      -2.65094891
Fe       4.96126000       4.63305000       3.41410000      -3.60269200      -2.00302700       2.25051900      -3.73810026      -2.24046022       2.45724503
Fe       5.11347000       6.81217000       1.78872000      -0.87770500       0.06714300      -1.61156800      -0.70881006       0.06419911      -1.60473903
Fe       5.00950000       6.45991000       8.24507000      -2.30619500      -0.19808200      -1.52355700      -2.30439384       0.01192947      -1.72215773
Fe       4.64263000       7.71190000       5.75084000       2.50156800       4.23919200      -1.55456800       2.58844299       4.31091321      -1.61179783
Fe       7.32285000       0.33022000       5.03535000      -0.99210900      -0.59745100       4.73628300      -1.00390839      -0.39768678       4.79028354
Fe       6.75330000       1.32958000       7.05071000       0.53851300       2.01290400       0.36400700       0.54905223       1.84741434       0.34626234
Fe       6.82686000       2.53028000       3.66692000      -0.08907100      -0.12987400      -0.26318300      -0.04227482      -0.19526063      -0.27755971
Fe       6.83617000       5.56618000       0.59386000       1.74434500       1.47371700      -3.32847200       1.82584366       1.66347477      -3.51756118
Fe       8.27091000       4.29855000       2.87718000       3.23308900       0.33980500       1.37352500       3.19320728       0.20151695       1.32413039
Fe       6.58774000       4.90718000       4.97515000      -1.87594500       0.58060600      -0.05143700      -2.12827465       0.64136901      -0.40650821
Fe       6.86773000       6.79187000       3.27473000       1.52763600      -2.76254700       0.67579100       1.39101556      -2.45224265       0.35549911
Fe       8.09083000       8.29691000       0.84396000      -4.18921500      -1.95965200       9.56442300      -4.12261939      -2.29601789       9.66954844
Fe       6.62133000       7.67903000       7.47205000      -3.65417600       1.51975600      -3.32990400      -3.98712209       1.22371985      -3.48200833
B        3.45077000       6.81738000       6.75435000       2.04131500      -2.79808300       3.80923700       1.95157195      -2.81166618       3.98082879
B        4.67436000       1.10514000       4.73414000       0.75036200       0.95391600      -0.52852700       0.85352434       0.91421520      -0.46258853
B        6.18153000       2.20088000       5.47737000      -4.49435700      -3.20609500      -2.27763700      -4.75936740      -3.12406952      -2.49992425
B        5.08133000       4.10197000       6.35983000       0.35152900       0.25548900      -0.65354500       0.56151162       0.29605459      -0.57115765
B        4.48663000       4.29393000       1.40792000      -0.27448100       1.04603100       0.21283300      -0.22235021       1.22521539       0.15954869
B        4.96286000       5.88068000       6.14703000       0.60492000      -1.85032800       0.29314600       0.56088116      -1.93036626       0.13550652
B        8.17242000       5.65216000       5.55863000       1.00443800       0.65677900      -0.69824300       1.07023280       0.69400522      -0.33399631
B        7.98743000       6.92663000       6.60530000       5.86774900       2.58695800      -4.05103700       5.81023154       2.38692615      -3.62288643
B        7.10769000       5.72812000       6.91109000      -2.33709700      -3.34606800       1.34633400      -2.25367049      -3.43135209       1.39758049
B        7.81665000       6.81498000       8.33858000       5.04350100      -2.41043400       0.97359300       5.16210232      -2.41114244       0.65516695
Si       0.06983000       0.14925000       7.74742000       4.12649000       2.60901100      -8.87608100       3.97028864       2.61590691      -8.84413771
Si       1.93337000       2.41223000       3.74634000      10.14534600       2.98113100     -12.18526000      10.21372726       3.06134635     -11.96958052
Si       0.75978000       6.02813000       1.69309000      -4.13401100      -0.74920300       1.02787300      -4.13331878      -0.86360514       0.97332738
Si       2.22023000       5.10313000       7.16329000      -1.58663400       1.19675500      -1.89967800      -1.75098295       1.11460110      -1.94588494
Si       3.27754000       8.17117000       8.35443000       4.04667900       4.58101600      -2.24829100       3.89479572       4.55098298      -2.40457699
Si       4.48145000       2.18337000       8.34202000      -5.72220500      -5.96162700      -4.99603400      -5.46178879      -5.79596712      -5.17601193
Si       6.36439000       4.54151000       2.12641000       2.28764700      -2.33178900       1.39384200       2.53761899      -2.23225465       1.30347332
Si       4.52267000       6.51460000       3.75633000       0.42177200       5.22743800       1.25328700       0.13358691       5.34463634       1.35509806
Si       7.68278000       0.22257000       3.11016000      -0.17295300       4.89916800      -3.86478000      -0.26396090       4.82952206      -4.00656688
Si       7.35363000       3.38410000       6.13231000       4.40786200       1.27045000       2.62604800       4.37895772       1.39921185       2.97572988
54
Lattice="8.579999685 0.0 0.0 0.0 8.579999685 0.0 0.0 0.0 8.5799996" Properties=species:S:1:pos:R:3:REF_forces:R:3:MACE_forces:R:3 config_type=Fe34B10Si10 REF_energy=-354.71875992 MACE_energy=-355.13495055925654 pbc="T T T"
Fe       0.43313000       1.19321000       2.96848000       1.47291300       2.99028000       0.61180900       1.60411132       2.95000920       0.34368622
Fe       0.91365000       1.12516000       8.09995000       2.76260400      -2.00335600       1.20968300       2.50055669      -2.01914894       1.08896979
Fe       1.17142000       2.67870000       5.23446000      -1.90323000       6.04651700       0.58026800      -1.71341209       6.29735930       0.65547091
Fe       0.60772000       3.85484000       0.87278000       2.66909500       4.89444800       4.53699300       2.68377700       5.15863897       4.25414498
Fe       1.41565000       3.44858000       3.01161000      -0.29549500       2.03729500      -0.74017400      -0.22924570       1.92127503      -0.65771132
Fe       0.04226000       2.91249000       8.09734000      -3.39897200      -2.84207300      -2.69442200      -3.02998024      -2.80002708      -2.49738778
Fe       1.33282000       7.09057000       5.22634000      -0.45239700      -1.35392500       0.92503500      -0.25320323      -1.46523168       0.84497821
Fe       2.06045000       7.92051000       0.98063000      -3.11321000      -0.30108300      -2.49280600      -3.24454572      -0.51274297      -2.32711947
Fe       2.03627000       8.24295000       3.50701000      -1.42216600       4.38122900       0.88517600      -1.55605753       4.15175217       0.58974641
Fe       0.01253000       8.02686000       7.00667000       2.58679700       0.98610200     -11.80201700       2.53221776       0.79924352     -11.88518519
Fe       3.00353000       0.57289000       6.13981000      -1.03922300       0.18357300       0.93137300      -0.71585988       0.01380344       1.04766299
Fe       3.69949000       2.65196000       7.51811000       2.76433000      -4.34399200      -3.80269000       2.56980273      -4.16920319      -3.70463829
Fe       2.94478000       6.44154000       3.03987000       7.21319500      -3.66655800      -1.17614100       7.13660352      -3.39927392      -0.99956893
Fe       2.94309000       5.75189000       6.64956000      -6.24071800      -0.74678300       3.86021800      -6.51326130      -0.74106708       3.90202295
Fe       3.71160000       8.39321000       1.86324000       2.24845700      -0.43546600       0.28887200       2.40020341      -0.24532705       0.58707346
Fe       4.07810000       8.43915000       4.32840000       2.88035800       1.28304800      -0.49181300       2.88758983       1.40647447      -0.80496634
Fe       5.57499000       0.73262000       6.31633000      -3.12774100      -1.68249800      -0.98058200      -2.90895846      -1.73820430      -0.97999407
Fe       4.70712000       1.94493000       1.65492000      -2.04675700       4.97917500      -3.67899600      -2.07183939       4.91104747      -3.50095382
Fe       4.73401000       4.18392000       1.24748000       0.71501700       1.80608500      -0.06999200       0.70534239       1.92996414      -0.13154385
Fe       4.56687000       4.22266000       4.39618000       0.73801700       3.32591500      -2.10569900       0.55716517       3.40727461      -2.23302640
Fe       4.51224000       4.61167000       7.05684000       2.53211900      -0.41024200       0.53825400       2.97694771      -0.67435996       0.60886521
Fe       6.32808000       6.81945000       4.24288000      -3.20445400      -0.33519400      -1.28892300      -2.81963064      -0.24319604      -1.04718738
Fe       6.22240000       7.17309000       0.16230000      -3.30904600      -2.75215800       1.90373500      -3.46435717      -2.99160450       1.98528049
Fe       4.54224000       7.44382000       7.03838000       0.17895600      -5.02037800      -8.74618400       0.19224461      -5.31346787      -8.80021057
Fe       4.73272000       8.55832000       8.35561000      -0.10588400       8.96287400       6.54083400      -0.24584839       9.34200920       6.22599119
Fe       7.67285000       2.82429000       2.17742000      -2.12886900      -0.76272600      -2.06587500      -2.10607458      -0.73126503      -1.91327944
Fe       6.74071000       1.77406000       4.33655000       0.47479500       0.50025500      -0.42349800       0.14771858       0.51816435      -0.52858052
Fe       7.16362000       1.61896000       6.68131000       5.11373900       1.83737400       0.70818800       4.86587202       1.62375053       0.62666121
Fe       6.73653000       4.13840000       7.84564000       0.19062300       0.32905600       3.59274800       0.33185978       0.45086453       3.65175116
Fe       6.61248000       5.35948000       2.44590000       0.96755600      -0.77403900      -0.47053600       0.86683453      -0.74473307      -0.43236201
Fe       8.39074000       4.95678000       4.82580000       0.50677700       3.21370700       1.22596300       0.56765629       3.16882213       1.04742209
Fe       6.62275000       6.29700000       6.29237000       0.91106900      -0.58785400       1.74696000       0.81002218      -0.46703854       1.53733803
Fe       8.00875000       8.14674000       2.12563000      -1.25903800      -1.94608200      -3.37077000      -0.84844329      -1.92844900      -3.50808462
Fe       7.96861000       8.10559000       4.08816000       1.24434400       0.03207600       4.40361200       0.65947879      -0.04224520       4.61348849
B        3.14587000       1.61638000       2.59818000      -3.96044800      -1.57388800      -2.24367700      -4.14616793      -1.52260041      -2.18754481
B        4.07212000       1.93087000       3.78701000       0.55534200       0.12762300      -3.25123200       0.31821586       0.02287475      -3.21430100
B        2.24412000       1.90783000       4.05913000      -1.80380000      -9.70850100      -5.48536600      -1.80902442      -9.93617191      -5.57559033
B        2.90130000       3.06657000       4.45062000       2.48509300       7.60479000      -1.50334300       2.82556428       7.16295774      -1.45804077
B        2.82587000       3.80138000       5.80651000       0.21675600       2.27927400       3.92227300       0.24552706       2.14234069       3.90970031
B        2.60929000       5.04297000       1.66311000       0.12617300      -0.77075900      -0.46531300      -0.07597516      -0.97401882      -0.49141227
B        2.47198000       4.95014000       4.32601000      -0.76752800      -1.31946700       0.35153300      -0.86641762      -1.21612386       0.44803712
B        2.73354000       7.81887000       7.66829000      -1.47869400      -0.15377200       0.00458000      -1.48638306      -0.14222413       0.09795078
B        5.68071000       2.28134000       7.79544000      -0.95924500       0.41857400       1.11780500      -1.06072727       0.39111932       1.12034642
B        7.77536000       3.70665000       3.76574000      -0.44877700      -1.48394500      -0.38974400      -0.46648531      -1.42073299      -0.16698115
Si       0.79518000       0.92195000       5.77957000      -1.66645900      -4.94136200      -1.10925300      -1.63830286      -4.99322867      -0.96077516
Si       0.88055000       4.20706000       6.73551000       1.15626000       3.58432200      -0.32349000       1.18969937       3.66362270      -0.31052102
Si       1.15025000       6.44729000       2.43826000      -7.77651300      -1.83655100      -1.54918700      -7.83211880      -1.73833718      -1.76197009
Si       2.82820000       3.29548000       0.50208000      -4.05499500       1.58525200       5.32597100      -4.12507361       1.41836309       5.28312029
Si       4.14031000       6.38272000       0.30005000      -2.16949800      -2.44928300       2.57761000      -2.32475492      -2.32717119       2.44251709
Si       3.68345000       6.43010000       5.01209000       3.98893100       0.98565200      -2.13453700       3.92448594       1.20139420      -2.08496080
Si       5.73751000       0.59059000       2.53265000       5.08228400      -4.90021500       2.23852200       5.15862346      -4.95164496       2.49341100
Si       4.51163000       2.47994000       5.36819000       2.60737700      -2.86786400       7.12589500       2.71702815      -2.52142112       7.26374033
Si       6.43436000       3.75222000       5.86206000       1.38008400       0.66155200      -3.64612400       1.49698148       0.65956653      -3.76995071
Si       8.06432000       7.52318000       8.55473000       2.36409700      -3.06603600      11.34847700       2.68001865      -2.74243145      11.26447099
18
Lattice="6.5 0.0 0.0 0.0 6.5 0.0 0.0 0.0 6.5" Properties=species:S:1:pos:R:3:REF_forces:R:3:MACE_forces:R:3 config_type=Fe12B3Si3 REF_energy=-113.87843945 MACE_energy=-112.26182676102528 pbc="T T T"
Fe       5.40234000       5.43492000       1.53729000      -1.39532100       2.04028400       0.71142300      -1.21975525       2.08937694       0.81774131
Fe       2.09750000       2.10361000       0.54730000       2.35673700      -0.33103000       1.27254800       2.64456728      -0.19347808       1.49726237
Fe       2.84360000       1.73250000       3.81271000       2.28004000      -1.18251600      -0.27344700       2.20247559      -1.01062010      -0.35132652
Fe       0.77541000       4.93717000       1.04317000       1.56096300      -3.83372900       1.76362000       1.54847481      -3.63281485       1.56108834
Fe       0.07665000       3.70431000       3.74351000      -0.75952900      -0.39175400      -2.23189700      -1.00485646      -0.50787930      -2.30905976
Fe       4.77171000       3.58949000       4.78220000      -1.99219600      -4.62409700       0.48420500      -1.72561034      -4.50659699       0.40285330
Fe       4.12430000       1.49867000       1.46476000       0.29771700      -2.38794700       0.28396300       0.33124977      -2.71736531       0.15500424
Fe       0.95387000       5.17746000       5.28728000      -0.57085000      -0.50160400      -1.80733600      -0.83552341      -0.67856017      -1.34128875
Fe       1.93602000       3.09888000       2.36598000      -0.08855100       0.43128300      -0.27209000      -0.22014095       0.47869120      -0.44557763
Fe       5.69037000       1.28357000       4.20026000      -0.40866000      -0.49067900       0.18976600      -0.76448669      -0.35960716       0.25153554
Fe       1.94321000       2.86141000       5.39871000      -0.55906500       0.73218900      -1.80086600      -0.59552501       0.91068926      -2.18262382
Fe       4.33122000       5.38124000       5.25469000      -0.73272900       4.56545400       1.52017900      -0.63730503       4.42882721       1.54996289
B        0.37598000       1.64060000       1.21420000      -3.21263000       2.85095800       0.76078000      -3.14732848       2.77731320       0.98337167
B        1.88110000       4.04794000       3.96741000       2.48956600       2.45119300      -0.32261600       2.55710337       2.40301528      -0.29687785
B        3.63878000       0.94242000       5.41981000      -0.01444500       0.67937600       0.95779200       0.07161780       0.76687178       1.07906527
Si       1.19380000       0.26963000       0.19686000       0.54051800       0.24528300      -1.93219100       0.61434060       0.01696257      -1.88188981
Si       4.57825000       3.47658000       1.16117000       0.15934200       1.26766700      -0.81102600       0.24655021       1.38685019      -0.76203224
Si       1.09558000       0.76720000       2.75124000       0.04909300      -1.52033200       1.50719200      -0.06584781      -1.65167565       1.27279145
54
Lattice="8.579999685 0.0 0.0 0.0 8.579999685 0.0 0.0 0.0 8.5799996" Properties=species:S:1:pos:R:3:REF_forces:R:3:MACE_forces:R:3 config_type=Fe34B10Si10 REF_energy=-356.0869274 MACE_energy=-356.78573685478455 pbc="T T T"
Fe       0.92877000       1.08311000       2.12831000      -0.53214900      -1.15432400       0.53007800      -0.67006277      -1.18425497       0.41974741
Fe       1.12794000       0.45096000       7.37327000      -2.86345100       2.18226700       1.45805300      -2.69894288       1.97030989       1.43014450
Fe       0.91289000       3.61082000       1.96264000      -1.66570100       0.50807500      -4.76654600      -1.58468701       0.23294372      -4.57283767
Fe       0.97242000       3.25012000       3.83975000      -0.85629000      -1.23507100      -0.91491200      -1.15549780      -1.12990703      -0.50858062
Fe       1.43574000       3.84332000       5.84621000      -1.94378300      -0.72872400       4.94145300      -2.05595367      -0.54076989       4.78492223
Fe       0.45897000       5.99881000       1.32384000       1.86679900       1.45939200      -0.33976700       1.71796205       1.45832718      -0.16386850
Fe       0.05714000       6.25044000       6.01250000       0.66851500      -0.88142700       1.67028200       0.61410965      -0.75052024       1.66159439
Fe       1.87526000       7.05991000       7.27744000      -5.90957000       6.81146600       5.95768600      -5.66162945       7.05319951       5.81694723
Fe       4.21220000       0.80536000       3.81626000       0.44958900      -1.97725700       0.54591300       0.51479937      -1.81309334       0.45321954
Fe       2.64196000       0.75311000       5.88605000       0.80305000      -0.92688600      -1.50973400       0.49336452      -1.07332670      -1.45712077
Fe       2.51735000       4.27963000       7.86001000      -0.17185400       2.88247300       0.00075600      -0.15287958       3.00492652       0.00945720
Fe       2.46175000       4.76211000       4.38544000       2.27245000       6.36429500      -0.60000700       2.31786363       6.41660104      -0.54134831
Fe       3.99132000       4.46692000       6.09268000      -0.21521200      -1.96607600      -0.25853400      -0.25233230      -2.19022175      -0.16163810
Fe       4.03283000       6.20484000       2.50717000       0.32509400      -1.83048700       1.07686200       0.44271377      -1.70135052       1.03724683
Fe       2.62183000       8.12097000       1.25125000      -5.45108600      -1.04608100      -0.88869000      -5.49762503      -1.12660850      -0.72730264
Fe       2.34208000       7.49949000       3.33705000      -1.45221900       0.10179900       1.96325000      -1.29282833       0.08546313       1.62783096
Fe       4.67554000       0.98699000       8.35162000       1.97529500       0.95938300       0.07305200       1.71085704       0.86766179       0.35008565
Fe       4.68615000       2.28426000       1.60336000       6.03713100       4.39249100       1.56082500       6.21234201       4.33067827       1.10208607
Fe       4.95897000       4.28949000       0.91503000       1.24258400       3.77490300      -1.07876200       0.80784139       3.57644696      -1.17249853
Fe       5.62605000       3.84953000       3.25301000      -4.56775200       3.43217100       2.09526400      -4.68795551       3.46530339       1.90425370
Fe       5.63153000       5.70233000       4.67966000       0.04558900       0.36352900      -0.74034800       0.09618654      -0.05827442      -0.60552083
Fe       5.00954000       6.14620000       6.89198000       4.51113600      -2.60361300       1.43664400       4.50448142      -2.47549790       1.35569369
Fe       5.34723000       7.32984000       0.56425000       3.41130600      -7.55812200      -7.44238600       3.32990639      -7.16178691      -7.16830211
Fe       4.57141000       8.20633000       1.67615000      -2.51651100       6.57056000       9.11650700      -2.60037071       6.12995432       8.91682875
Fe       5.67084000       7.83697000       6.02451000      -0.02983000       3.57151200       0.33120700      -0.04029878       3.64664376       0.42577318
Fe       7.65837000       1.05332000       0.64336000       1.95813700       2.93603900      -3.62028800       1.85125075       2.85771149      -3.44710255
Fe       7.23579000       1.49494000       3.62009000       0.88838800      -1.50203300       3.00240400       1.07283200      -1.47655111       2.98024987
Fe       6.96409000       1.59543000       6.70415000       0.40175100      -2.57633900      -0.54943900       0.45876056      -2.47518881      -0.50781922
Fe       6.97946000       3.05325000       2.27831000       3.01329100      -2.85779700      -7.80747400       2.61933707      -2.94035625      -7.39269856
Fe       7.05854000       3.62734000       7.13255000       0.94483300       2.42104600       2.56329500       0.96588824       2.34769314       2.36551196
Fe       7.47490000       4.49325000       0.92243000      -3.13561000       0.06366500       0.11142200      -2.80914858       0.43192627      -0.13357162
Fe       7.76499000       5.40883000       4.05655000       3.42051700      -2.49950500       1.10150300       3.56122327      -2.63807589       1.13203613
Fe       6.91686000       6.16423000       2.38917000      -4.34160700       0.52717700      -3.24358900      -4.34825820       0.81989149      -3.24585810
Fe       7.31773000       7.39473000       4.73130000      -1.41907300       3.06948200       1.38572900      -1.41051278       2.98246567       1.34599597
B        1.63947000       5.44017000       2.85377000      -1.37965300       1.67099600      -0.34434500      -1.45258653       1.71569812      -0.60716293
B        3.47444000       1.29905000       1.69513000      -6.04542900      -7.46227000      -1.52467000      -6.05595144      -6.91527814      -1.27399931
B        2.31673000       1.42955000       3.77944000      -1.85652800      -2.14982900       3.21956500      -1.76118728      -1.95984320       3.36010537
B        3.17088000       0.01260000       8.16689000      -2.14308300      -0.12737100      -3.63430700      -2.07975748       0.11051924      -3.49227034
B        2.48887000       2.23189000       2.44876000      -1.30373000       3.96631200      -0.94871100      -0.88577903       3.78566816      -1.24649287
B        3.55016000       3.21990000       0.17024000       2.13469500      -3.52588700       0.23974700       2.13156188      -3.54993029       0.42655715
B        3.12966000       3.07291000       4.24572000      -6.99085300       0.34377600      -0.16579100      -6.85346514       0.06112878      -0.20931953
B        2.38358000       5.95301000       6.34325000       2.25901800      -8.76611800      -6.31465800       2.11428491      -9.04650533      -6.39716618
B        4.46260000       2.62992000       4.23823000       7.08507900      -1.75449200       0.40993300       6.98118766      -1.82190140       0.35827826
B        7.51183000       3.59374000       3.85724000       1.49621300      -1.20378300       3.39561400       1.51910186      -1.06689544       3.24720949
Si       0.50050000       1.66927000       5.10425000      -1.02554400      -2.67263500       2.61432900      -0.78441600      -2.97067627       2.58542282
Si       0.41923000       4.50138000       8.15701000       0.82744200      -0.47721100      -2.57541600       1.06182074      -0.41541861      -2.76879324
Si       2.90131000       4.25049000       1.93860000       2.71957100       0.04497600      -0.88170100       2.70611000      -0.02694545      -1.04231067
Si       3.74353000       6.85388000       5.19884000      -1.20766000       1.80214700      -2.20114300      -1.09408276       1.91173452      -2.08939322
Si       3.54209000       6.47938000       8.21357000      -0.45014500      -1.75854100       4.24377300      -0.58277267      -2.01247125       4.39565742
Si       4.55252000       1.74669000       6.40118000       0.28733400       0.20348600      -1.69136000       0.23179088       0.20100203      -1.59654067
Si       5.87020000       3.30923000       5.41310000       1.93974000       0.55942400      -1.14043100       1.67697412       0.85719991      -1.18273881
Si       6.68392000       0.09389000       2.07850000      -2.78148600      -1.30329400       2.70552900      -2.55481370      -1.24256715       2.84791440
Si       7.30980000       7.36953000       0.08595000       4.18267400      -0.22507900      -1.67891000       4.31861642      -0.42631134      -1.76966305
Si       8.41387000       7.50606000       2.97540000       5.08859000       1.78741200      -0.88875800       4.99062726       1.86942980      -0.85885124
54
Lattice="8.579999685 0.0 0.0 0.0 8.579999685 0.0 0.0 0.0 8.5799996" Properties=species:S:1:pos:R:3:REF_forces:R:3:MACE_forces:R:3 config_type=Fe34B10Si10 REF_energy=-359.84864784 MACE_energy=-360.2196115641831 pbc="T T T"
Fe       0.39531000       2.37288000       0.87042000       3.27925500       2.43832800      -1.60261100       3.14296094       2.69614582      -1.72681249
Fe       0.75383000       1.65209000       3.11094000       1.30783500      -0.34615400      -0.09267000       1.34591843      -0.80291507       0.02253379
Fe       1.33201000       3.79282000       7.26231000      -2.40668100      -1.18131200       0.32245500      -2.45284383      -1.13641017       0.20443956
Fe       0.64436000       4.41396000       2.97573000       2.42004200      -2.26182600       0.38963900       2.45216976      -2.08244359       0.22136405
Fe       0.14751000       6.42079000       3.51005000      -3.07002100       1.32407200      -2.30638400      -3.14944841       1.30536562      -2.48288432