54
Lattice="8.579999685 0.0 0.0 0.0 8.579999685 0.0 0.0 0.0 8.5799996" Properties=species:S:1:pos:R:3:REF_forces:R:3:MACE_forces:R:3 config_type=Fe34B10Si10 REF_energy=-352.89092233 MACE_energy=-352.9673466696698 pbc="T T T"
Fe       1.46495000       0.71583000       1.12880000       3.73230100      -3.41607500      -3.76209700       3.72859956      -3.46049261      -3.55732812
Fe       0.56244000       2.07917000       1.96452000      -3.31290700       4.06628900       2.54508600      -3.27482977       3.95830173       2.30832365
Fe       0.86636000       2.12990000       5.00906000     -10.85567700      -2.87102900      12.20968700     -10.87898308      -2.94280202      12.20255202
Fe       0.24697000       2.61233000       7.83061000      -0.37811800      -2.03816900      -0.08744800      -0.43375078      -1.93980541       0.05331047
Fe       0.35437000       4.66395000       8.16447000      -1.30300600       1.62250000       0.84662400      -1.33234616       1.69710231       0.82064989
Fe       0.83543000       8.00840000       3.01492000       5.54921000      -2.55787300       0.52513800       5.72922658      -2.52002475       0.42988671
Fe       2.03952000       7.84431000       6.63062000      -4.28706100       1.82495200      -1.68802900      -4.06918001       1.94480842      -1.62384506
Fe       3.34318000       0.11090000       2.96052000      -0.46571400      -0.35056300       0.37864800      -0.51055445      -0.21974670       0.47361914
Fe       3.26317000       2.11539000       1.48699000      -3.47884800      -0.03222100       0.61542300      -3.40324636      -0.28956427       0.17521342
Fe       4.14313000       2.75755000       3.31065000      -0.71378000      -2.73118300       1.93004800      -0.61234062      -2.46675543       1.90939872
Fe       2.55051000       2.67374000       7.19710000      -2.55215900      -0.93589000       1.77261600      -2.30549826      -1.10248592       1.71524369
Fe       3.61327000       2.86500000       5.46497000       1.55763200       0.20514300      -0.56676300       1.48749380       0.25352482      -0.30589528
Fe       2.62400000       4.72550000       1.39174000      -1.08585200      -1.19598700       0.59645400      -1.35905871      -0.97441842       0.67994530
Fe       2.20317000       5.21693000       3.87451000      -3.92870900      -4.38103900      -4.92199500      -3.94490370      -4.41147403      -5.02517917
Fe       3.93082000       4.37819000       8.08226000       1.07616800       0.44807800      -0.99700400       0.99751533       0.31033441      -0.94412249
Fe       2.44961000       7.01753000       1.08943000       0.32119000      -1.55635000       3.27006500       0.44520534      -1.59800161       3.27649357
Fe       3.02500000       6.15780000       5.08193000      -1.08486800       1.64126100       3.95415400      -0.48541693       1.71890333       4.14180285
Fe       5.77712000       0.44616000       0.16142000      -2.43333700       0.07175000       4.13474700      -2.49887465       0.42173284       4.24528717
Fe       5.66964000       0.14892000       2.95259000      -3.67617900       1.90971100       0.12919700      -3.72846414       1.64801877       0.32289916
Fe       5.39484000       2.66317000       1.55162000       4.08183700      -3.39937100       3.88213200       4.04332453      -3.65541702       4.06284703
Fe       5.91309000       3.40423000       8.31953000       8.90196200       5.48305700      -2.72562400       8.68765599       5.41974281      -2.69504569
Fe       4.96126000       4.63305000       3.41410000      -3.60269200      -2.00302700       2.25051900      -3.76558588      -2.21090987       2.40275520
Fe       5.11347000       6.81217000       1.78872000      -0.87770500       0.06714300      -1.61156800      -0.74958468       0.05340741      -1.62066142
Fe       5.00950000       6.45991000       8.24507000      -2.30619500      -0.19808200      -1.52355700      -2.32870324      -0.01283434      -1.68986182
Fe       4.64263000       7.71190000       5.75084000       2.50156800       4.23919200      -1.55456800       2.60126350       4.34711039      -1.62429550
Fe       7.32285000       0.33022000       5.03535000      -0.99210900      -0.59745100       4.73628300      -0.99830046      -0.39287024       4.80416324
Fe       6.75330000       1.32958000       7.05071000       0.53851300       2.01290400       0.36400700       0.55931391       1.85040776       0.33566765
Fe       6.82686000       2.53028000       3.66692000      -0.08907100      -0.12987400      -0.26318300      -0.03559174      -0.20397392      -0.25750500
Fe       6.83617000       5.56618000       0.59386000       1.74434500       1.47371700      -3.32847200       1.86962396       1.67599716      -3.48026352
Fe       8.27091000       4.29855000       2.87718000       3.23308900       0.33980500       1.37352500       3.20567370       0.22469453       1.31948318
Fe       6.58774000       4.90718000       4.97515000      -1.87594500       0.58060600      -0.05143700      -2.11956529       0.61619612      -0.37735184
Fe       6.86773000       6.79187000       3.27473000       1.52763600      -2.76254700       0.67579100       1.39735330      -2.47638034       0.35461264
Fe       8.09083000       8.29691000       0.84396000      -4.18921500      -1.95965200       9.56442300      -4.16644056      -2.34419509       9.67308658
Fe       6.62133000       7.67903000       7.47205000      -3.65417600       1.51975600      -3.32990400      -3.89852827       1.20496178      -3.52915475
B        3.45077000       6.81738000       6.75435000       2.04131500      -2.79808300       3.80923700       1.87083089      -2.75898786       3.94566355
B        4.67436000       1.10514000       4.73414000       0.75036200       0.95391600      -0.52852700       0.86210396       0.91416969      -0.43921437
B        6.18153000       2.20088000       5.47737000      -4.49435700      -3.20609500      -2.27763700      -4.82560637      -3.17560291      -2.53377304
B        5.08133000       4.10197000       6.35983000       0.35152900       0.25548900      -0.65354500       0.54010778       0.29543958      -0.59014353
B        4.48663000       4.29393000       1.40792000      -0.27448100       1.04603100       0.21283300      -0.24238228       1.20607016       0.17172606
B        4.96286000       5.88068000       6.14703000       0.60492000      -1.85032800       0.29314600       0.60197801      -1.93202767       0.12840083
B        8.17242000       5.65216000       5.55863000       1.00443800       0.65677900      -0.69824300       1.06953312       0.67998801      -0.33728315
B        7.98743000       6.92663000       6.60530000       5.86774900       2.58695800      -4.05103700       5.82128293       2.44319791      -3.67063606
B        7.10769000       5.72812000       6.91109000      -2.33709700      -3.34606800       1.34633400      -2.27100919      -3.44970190       1.36394204
B        7.81665000       6.81498000       8.33858000       5.04350100      -2.41043400       0.97359300       5.13863824      -2.40250375       0.71527357
Si       0.06983000       0.14925000       7.74742000       4.12649000       2.60901100      -8.87608100       3.97179003       2.60260570      -8.86491351
Si       1.93337000       2.41223000       3.74634000      10.14534600       2.98113100     -12.18526000      10.24561597       3.09033269     -12.00142863
Si       0.75978000       6.02813000       1.69309000      -4.13401100      -0.74920300       1.02787300      -4.12112890      -0.89272265       0.97266084
Si       2.22023000       5.10313000       7.16329000      -1.58663400       1.19675500      -1.89967800      -1.79302318       1.14180192      -1.91598208
Si       3.27754000       8.17117000       8.35443000       4.04667900       4.58101600      -2.24829100       3.90229370       4.53937068      -2.42856255
Si       4.48145000       2.18337000       8.34202000      -5.72220500      -5.96162700      -4.99603400      -5.48085880      -5.83258677      -5.16731711
Si       6.36439000       4.54151000       2.12641000       2.28764700      -2.33178900       1.39384200       2.56819170      -2.22503738       1.27428660
Si       4.52267000       6.51460000       3.75633000       0.42177200       5.22743800       1.25328700       0.13407409       5.37538350       1.38452856
Si       7.68278000       0.22257000       3.11016000      -0.17295300       4.89916800      -3.86478000      -0.28320599       4.82854193      -3.99176448
Si       7.35363000       3.38410000       6.13231000       4.40786200       1.27045000       2.62604800       4.43827250       1.42917652       3.00780483
54
Lattice="8.579999685 0.0 0.0 0.0 8.579999685 0.0 0.0 0.0 8.5799996" Properties=species:S:1:pos:R:3:REF_forces:R:3:MACE_forces:R:3 config_type=Fe34B10Si10 REF_energy=-354.71875992 MACE_energy=-355.1254079253572 pbc="T T T"
Fe       0.43313000       1.19321000       2.96848000       1.47291300       2.99028000       0.61180900       1.63614752       2.96360911       0.34401011
Fe       0.91365000       1.12516000       8.09995000       2.76260400      -2.00335600       1.20968300       2.48981329      -2.07114010       1.07050023
Fe       1.17142000       2.67870000       5.23446000      -1.90323000       6.04651700       0.58026800      -1.70965669       6.28652454       0.60488208
Fe       0.60772000       3.85484000       0.87278000       2.66909500       4.89444800       4.53699300       2.64209919       5.13246228       4.19815446
Fe       1.41565000       3.44858000       3.01161000      -0.29549500       2.03729500      -0.74017400      -0.21267243       1.89095487      -0.66329289
Fe       0.04226000       2.91249000       8.09734000      -3.39897200      -2.84207300      -2.69442200      -2.98655380      -2.74736335      -2.40131867
Fe       1.33282000       7.09057000       5.22634000      -0.45239700      -1.35392500       0.92503500      -0.26288316      -1.47013412       0.83389944
Fe       2.06045000       7.92051000       0.98063000      -3.11321000      -0.30108300      -2.49280600      -3.24891778      -0.53754204      -2.34766609
Fe       2.03627000       8.24295000       3.50701000      -1.42216600       4.38122900       0.88517600      -1.57710719       4.18909668       0.58544942
Fe       0.01253000       8.02686000       7.00667000       2.58679700       0.98610200     -11.80201700       2.52924884       0.79594350     -11.88822675
Fe       3.00353000       0.57289000       6.13981000      -1.03922300       0.18357300       0.93137300      -0.74263534       0.05177243       1.05051520
Fe       3.69949000       2.65196000       7.51811000       2.76433000      -4.34399200      -3.80269000       2.53976975      -4.16051543      -3.65899983
Fe       2.94478000       6.44154000       3.03987000       7.21319500      -3.66655800      -1.17614100       7.14164840      -3.43852013      -0.97081915
Fe       2.94309000       5.75189000       6.64956000      -6.24071800      -0.74678300       3.86021800      -6.51784393      -0.72487611       3.89660287
Fe       3.71160000       8.39321000       1.86324000       2.24845700      -0.43546600       0.28887200       2.41069184      -0.20766110       0.55893511
Fe       4.07810000       8.43915000       4.32840000       2.88035800       1.28304800      -0.49181300       2.92075240       1.43883566      -0.79687718
Fe       5.57499000       0.73262000       6.31633000      -3.12774100      -1.68249800      -0.98058200      -2.93079588      -1.74014103      -1.02860489
Fe       4.70712000       1.94493000       1.65492000      -2.04675700       4.97917500      -3.67899600      -2.11380866       4.85704352      -3.51493570
Fe       4.73401000       4.18392000       1.24748000       0.71501700       1.80608500      -0.06999200       0.69079171       1.92743707      -0.14665787
Fe       4.56687000       4.22266000       4.39618000       0.73801700       3.32591500      -2.10569900       0.53222673       3.39983918      -2.21476315
Fe       4.51224000       4.61167000       7.05684000       2.53211900      -0.41024200       0.53825400       3.00205972      -0.66740953       0.59981819
Fe       6.32808000       6.81945000       4.24288000      -3.20445400      -0.33519400      -1.28892300      -2.83198222      -0.22723669      -1.02575256
Fe       6.22240000       7.17309000       0.16230000      -3.30904600      -2.75215800       1.90373500      -3.49838703      -2.98755501       1.98681879
Fe       4.54224000       7.44382000       7.03838000       0.17895600      -5.02037800      -8.74618400       0.18577218      -5.31418525      -8.81122696
Fe       4.73272000       8.55832000       8.35561000      -0.10588400       8.96287400       6.54083400      -0.27794271       9.35297473       6.25485050
Fe       7.67285000       2.82429000       2.17742000      -2.12886900      -0.76272600      -2.06587500      -2.13390654      -0.75049092      -1.90992890
Fe       6.74071000       1.77406000       4.33655000       0.47479500       0.50025500      -0.42349800       0.12797368       0.53296155      -0.51660514
Fe       7.16362000       1.61896000       6.68131000       5.11373900       1.83737400       0.70818800       4.88163797       1.63461369       0.62683494
Fe       6.73653000       4.13840000       7.84564000       0.19062300       0.32905600       3.59274800       0.33930059       0.46254537       3.66626525
Fe       6.61248000       5.35948000       2.44590000       0.96755600      -0.77403900      -0.47053600       0.89584242      -0.73602837      -0.44487057
Fe       8.39074000       4.95678000       4.82580000       0.50677700       3.21370700       1.22596300       0.56997133       3.16018526       1.04759069
Fe       6.62275000       6.29700000       6.29237000       0.91106900      -0.58785400       1.74696000       0.84162498      -0.46500086       1.53839868
Fe       8.00875000       8.14674000       2.12563000      -1.25903800      -1.94608200      -3.37077000      -0.86735005      -1.95017555      -3.53156654
Fe       7.96861000       8.10559000       4.08816000       1.24434400       0.03207600       4.40361200       0.65523842      -0.04303062       4.62961001
B        3.14587000       1.61638000       2.59818000      -3.96044800      -1.57388800      -2.24367700      -4.12626714      -1.55079784      -2.20480425
B        4.07212000       1.93087000       3.78701000       0.55534200       0.12762300      -3.25123200       0.36291594      -0.00804610      -3.30067679
B        2.24412000       1.90783000       4.05913000      -1.80380000      -9.70850100      -5.48536600      -1.87607445      -9.95549767      -5.59213537
B        2.90130000       3.06657000       4.45062000       2.48509300       7.60479000      -1.50334300       2.83942342       7.22874338      -1.43423571
B        2.82587000       3.80138000       5.80651000       0.21675600       2.27927400       3.92227300       0.22517727       2.15144306       3.96009966
B        2.60929000       5.04297000       1.66311000       0.12617300      -0.77075900      -0.46531300      -0.04733139      -0.97843411      -0.45753276
B        2.47198000       4.95014000       4.32601000      -0.76752800      -1.31946700       0.35153300      -0.86796824      -1.17572293       0.41529150
B        2.73354000       7.81887000       7.66829000      -1.47869400      -0.15377200       0.00458000      -1.48014274      -0.14931486       0.13275528
B        5.68071000       2.28134000       7.79544000      -0.95924500       0.41857400       1.11780500      -1.04566228       0.37596519       1.12535945
B        7.77536000       3.70665000       3.76574000      -0.44877700      -1.48394500      -0.38974400      -0.46457425      -1.42415735      -0.16078447
Si       0.79518000       0.92195000       5.77957000      -1.66645900      -4.94136200      -1.10925300      -1.62588318      -5.06995750      -0.91769910
Si       0.88055000       4.20706000       6.73551000       1.15626000       3.58432200      -0.32349000       1.19637172       3.69876052      -0.29579338
Si       1.15025000       6.44729000       2.43826000      -7.77651300      -1.83655100      -1.54918700      -7.85070788      -1.68435686      -1.78415151
Si       2.82820000       3.29548000       0.50208000      -4.05499500       1.58525200       5.32597100      -4.13374931       1.39619808       5.24429084
Si       4.14031000       6.38272000       0.30005000      -2.16949800      -2.44928300       2.57761000      -2.30958576      -2.32739984       2.45211821
Si       3.68345000       6.43010000       5.01209000       3.98893100       0.98565200      -2.13453700       3.92417503       1.23394688      -2.04793864
Si       5.73751000       0.59059000       2.53265000       5.08228400      -4.90021500       2.23852200       5.17371141      -4.93481609       2.50008621
Si       4.51163000       2.47994000       5.36819000       2.60737700      -2.86786400       7.12589500       2.77783166      -2.59459616       7.29066065
Si       6.43436000       3.75222000       5.86206000       1.38008400       0.66155200      -3.64612400       1.48663761       0.67704962      -3.80391064
Si       8.06432000       7.52318000       8.55473000       2.36409700      -3.06603600      11.34847700       2.72153501      -2.74680266      11.25797770
18
Lattice="6.5 0.0 0.0 0.0 6.5 0.0 0.0 0.0 6.5" Properties=species:S:1:pos:R:3:REF_forces:R:3:MACE_forces:R:3 config_type=Fe12B3Si3 REF_energy=-113.87843945 MACE_energy=-112.20940402215652 pbc="T T T"
Fe       5.40234000       5.43492000       1.53729000      -1.39532100       2.04028400       0.71142300      -1.19996442       2.08249741       0.83013398
Fe       2.09750000       2.10361000       0.54730000       2.35673700      -0.33103000       1.27254800       2.69382275      -0.26081026       1.51191753
Fe       2.84360000       1.73250000       3.81271000       2.28004000      -1.18251600      -0.27344700       2.18093944      -1.02911741      -0.30801156
Fe       0.77541000       4.93717000       1.04317000       1.56096300      -3.83372900       1.76362000       1.51754549      -3.64984496       1.60841480
Fe       0.07665000       3.70431000       3.74351000      -0.75952900      -0.39175400      -2.23189700      -0.96950414      -0.49945806      -2.32059950
Fe       4.77171000       3.58949000       4.78220000      -1.99219600      -4.62409700       0.48420500      -1.73064617      -4.53823529       0.40669978
Fe       4.12430000       1.49867000       1.46476000       0.29771700      -2.38794700       0.28396300       0.31098870      -2.73692393       0.16304450
Fe       0.95387000       5.17746000       5.28728000      -0.57085000      -0.50160400      -1.80733600      -0.83675216      -0.67279625      -1.41496815
Fe       1.93602000       3.09888000       2.36598000      -0.08855100       0.43128300      -0.27209000      -0.21317296       0.53370731      -0.40722291
Fe       5.69037000       1.28357000       4.20026000      -0.40866000      -0.49067900       0.18976600      -0.76316128      -0.36698968       0.26228275
Fe       1.94321000       2.86141000       5.39871000      -0.55906500       0.73218900      -1.80086600      -0.59886026       0.98698555      -2.28600527
Fe       4.33122000       5.38124000       5.25469000      -0.73272900       4.56545400       1.52017900      -0.64295052       4.48503185       1.56502408
B        0.37598000       1.64060000       1.21420000      -3.21263000       2.85095800       0.76078000      -3.17714915       2.77109468       0.98311321
B        1.88110000       4.04794000       3.96741000       2.48956600       2.45119300      -0.32261600       2.54374237       2.39793761      -0.29020661
B        3.63878000       0.94242000       5.41981000      -0.01444500       0.67937600       0.95779200       0.07336461       0.77633579       1.08213291
Si       1.19380000       0.26963000       0.19686000       0.54051800       0.24528300      -1.93219100       0.62591808       0.02399540      -1.89859118
Si       4.57825000       3.47658000       1.16117000       0.15934200       1.26766700      -0.81102600       0.23655153       1.36911919      -0.75619626
Si       1.09558000       0.76720000       2.75124000       0.04909300      -1.52033200       1.50719200      -0.05071192      -1.67252895       1.26903789
54
Lattice="8.579999685 0.0 0.0 0.0 8.579999685 0.0 0.0 0.0 8.5799996" Properties=species:S:1:pos:R:3:REF_forces:R:3:MACE_forces:R:3 config_type=Fe34B10Si10 REF_energy=-356.0869274 MACE_energy=-356.80157392209776 pbc="T T T"
Fe       0.92877000       1.08311000       2.12831000      -0.53214900      -1.15432400       0.53007800      -0.64121209      -1.18531581       0.41871357
Fe       1.12794000       0.45096000       7.37327000      -2.86345100       2.18226700       1.45805300      -2.70343111       2.00103314       1.42052940
Fe       0.91289000       3.61082000       1.96264000      -1.66570100       0.50807500      -4.76654600      -1.58518826       0.23444319      -4.64091683
Fe       0.97242000       3.25012000       3.83975000      -0.85629000      -1.23507100      -0.91491200      -1.15404631      -1.09155906      -0.48703460
Fe       1.43574000       3.84332000       5.84621000      -1.94378300      -0.72872400       4.94145300      -2.08673917      -0.55539409       4.77359530
Fe       0.45897000       5.99881000       1.32384000       1.86679900       1.45939200      -0.33976700       1.68441828       1.44668274      -0.18214741
Fe       0.05714000       6.25044000       6.01250000       0.66851500      -0.88142700       1.67028200       0.60733284      -0.73258964       1.69051973
Fe       1.87526000       7.05991000       7.27744000      -5.90957000       6.81146600       5.95768600      -5.70355904       7.09452952       5.83669146
Fe       4.21220000       0.80536000       3.81626000       0.44958900      -1.97725700       0.54591300       0.50345580      -1.80152145       0.46514529
Fe       2.64196000       0.75311000       5.88605000       0.80305000      -0.92688600      -1.50973400       0.51424875      -1.07846504      -1.45884775
Fe       2.51735000       4.27963000       7.86001000      -0.17185400       2.88247300       0.00075600      -0.16736291       2.99429309       0.04132856
Fe       2.46175000       4.76211000       4.38544000       2.27245000       6.36429500      -0.60000700       2.33024033       6.39314105      -0.54815272
Fe       3.99132000       4.46692000       6.09268000      -0.21521200      -1.96607600      -0.25853400      -0.24397869      -2.22729145      -0.15072156
Fe       4.03283000       6.20484000       2.50717000       0.32509400      -1.83048700       1.07686200       0.43217014      -1.73087140       1.05990884
Fe       2.62183000       8.12097000       1.25125000      -5.45108600      -1.04608100      -0.88869000      -5.53820930      -1.10006137      -0.71658466
Fe       2.34208000       7.49949000       3.33705000      -1.45221900       0.10179900       1.96325000      -1.31458091       0.07902536       1.64766272
Fe       4.67554000       0.98699000       8.35162000       1.97529500       0.95938300       0.07305200       1.74116685       0.88462438       0.28462959
Fe       4.68615000       2.28426000       1.60336000       6.03713100       4.39249100       1.56082500       6.17971634       4.35606335       1.12311086
Fe       4.95897000       4.28949000       0.91503000       1.24258400       3.77490300      -1.07876200       0.80645359       3.59000658      -1.20149321
Fe       5.62605000       3.84953000       3.25301000      -4.56775200       3.43217100       2.09526400      -4.64600062       3.45378819       1.88840063
Fe       5.63153000       5.70233000       4.67966000       0.04558900       0.36352900      -0.74034800       0.12920989      -0.01987701      -0.58868031
Fe       5.00954000       6.14620000       6.89198000       4.51113600      -2.60361300       1.43664400       4.53297119      -2.46279564       1.32956622
Fe       5.34723000       7.32984000       0.56425000       3.41130600      -7.55812200      -7.44238600       3.32825935      -7.21634010      -7.20804921
Fe       4.57141000       8.20633000       1.67615000      -2.51651100       6.57056000       9.11650700      -2.57071129       6.15005120       8.92954780
Fe       5.67084000       7.83697000       6.02451000      -0.02983000       3.57151200       0.33120700      -0.05038972       3.64185902       0.41151293
Fe       7.65837000       1.05332000       0.64336000       1.95813700       2.93603900      -3.62028800       1.85829399       2.85462167      -3.46319983
Fe       7.23579000       1.49494000       3.62009000       0.88838800      -1.50203300       3.00240400       1.06546077      -1.50516406       3.01430977
Fe       6.96409000       1.59543000       6.70415000       0.40175100      -2.57633900      -0.54943900       0.45188884      -2.45022279      -0.49553827
Fe       6.97946000       3.05325000       2.27831000       3.01329100      -2.85779700      -7.80747400       2.62447957      -2.88691080      -7.37770535
Fe       7.05854000       3.62734000       7.13255000       0.94483300       2.42104600       2.56329500       0.99803070       2.33065549       2.36386776
Fe       7.47490000       4.49325000       0.92243000      -3.13561000       0.06366500       0.11142200      -2.80614813       0.41871731      -0.10996019
Fe       7.76499000       5.40883000       4.05655000       3.42051700      -2.49950500       1.10150300       3.52879625      -2.65158648       1.12860833
Fe       6.91686000       6.16423000       2.38917000      -4.34160700       0.52717700      -3.24358900      -4.33967793       0.80897113      -3.23480387
Fe       7.31773000       7.39473000       4.73130000      -1.41907300       3.06948200       1.38572900      -1.42178004       2.98614521       1.32660959
B        1.63947000       5.44017000       2.85377000      -1.37965300       1.67099600      -0.34434500      -1.46540983       1.74270231      -0.59173316
B        3.47444000       1.29905000       1.69513000      -6.04542900      -7.46227000      -1.52467000      -6.07610561      -6.95974823      -1.25671968
B        2.31673000       1.42955000       3.77944000      -1.85652800      -2.14982900       3.21956500      -1.77606453      -1.96271226       3.35834067
B        3.17088000       0.01260000       8.16689000      -2.14308300      -0.12737100      -3.63430700      -2.08899755       0.13096386      -3.49773342
B        2.48887000       2.23189000       2.44876000      -1.30373000       3.96631200      -0.94871100      -0.90428401       3.74412132      -1.23562189
B        3.55016000       3.21990000       0.17024000       2.13469500      -3.52588700       0.23974700       2.15869253      -3.54519172       0.39135502
B        3.12966000       3.07291000       4.24572000      -6.99085300       0.34377600      -0.16579100      -6.91628782       0.06882388      -0.20176808
B        2.38358000       5.95301000       6.34325000       2.25901800      -8.76611800      -6.31465800       2.13753207      -9.04589647      -6.44690033
B        4.46260000       2.62992000       4.23823000       7.08507900      -1.75449200       0.40993300       7.02971248      -1.84210459       0.35699143
B        7.51183000       3.59374000       3.85724000       1.49621300      -1.20378300       3.39561400       1.48115003      -1.04172409       3.22023643
Si       0.50050000       1.66927000       5.10425000      -1.02554400      -2.67263500       2.61432900      -0.79447810      -2.99933052       2.61823074
Si       0.41923000       4.50138000       8.15701000       0.82744200      -0.47721100      -2.57541600       1.07689755      -0.43280393      -2.77630031
Si       2.90131000       4.25049000       1.93860000       2.71957100       0.04497600      -0.88170100       2.71865879      -0.02195992      -1.03285677
Si       3.74353000       6.85388000       5.19884000      -1.20766000       1.80214700      -2.20114300      -1.09515844       1.90795591      -2.09671511
Si       3.54209000       6.47938000       8.21357000      -0.45014500      -1.75854100       4.24377300      -0.55840504      -2.00438670       4.44655421
Si       4.55252000       1.74669000       6.40118000       0.28733400       0.20348600      -1.69136000       0.23735841       0.18212787      -1.60513411
Si       5.87020000       3.30923000       5.41310000       1.93974000       0.55942400      -1.14043100       1.69860226       0.86235742      -1.17545086
Si       6.68392000       0.09389000       2.07850000      -2.78148600      -1.30329400       2.70552900      -2.58196083      -1.25039114       2.85907907
Si       7.30980000       7.36953000       0.08595000       4.18267400      -0.22507900      -1.67891000       4.38565333      -0.41906726      -1.76320754
Si       8.41387000       7.50606000       2.97540000       5.08859000       1.78741200      -0.88875800       4.98931632       1.86357885      -0.86106888
54
Lattice="8.579999685 0.0 0.0 0.0 8.579999685 0.0 0.0 0.0 8.5799996" Properties=species:S:1:pos:R:3:REF_forces:R:3:MACE_forces:R:3 config_type=Fe34B10Si10 REF_energy=-359.84864784 MACE_energy=-360.3017420481355 pbc="T T T"
Fe       0.39531000       2.37288000       0.87042000       3.27925500       2.43832800      -1.60261100       3.14923695       2.70016456      -1.72354674
Fe       0.75383000       1.65209000       3.11094000       1.30783500      -0.34615400      -0.09267000       1.34270421      -0.78522832       0.01756092
Fe       1.33201000       3.79282000       7.26231000      -2.40668100      -1.18131200       0.32245500      -2.51394451      -1.16757946       0.19852517
Fe       0.64436000       4.41396000       2.97573000       2.42004200      -2.26182600       0.38963900       2.45359335      -2.07586018       0.20267129
Fe       0.14751000       6.42079000       3.51005000      -3.07002100       1.32407200      -2.30638400      -3.12137228       1.32050314      -2.48869887