54
Lattice="8.579999685 0.0 0.0 0.0 8.579999685 0.0 0.0 0.0 8.5799996" Properties=species:S:1:pos:R:3:REF_forces:R:3:MACE_forces:R:3 config_type=Fe34B10Si10 REF_energy=-352.89092233 MACE_energy=-353.298359190865 pbc="T T T"
Fe       1.46495000       0.71583000       1.12880000       3.73230100      -3.41607500      -3.76209700       3.67469704      -3.55128317      -3.54352263
Fe       0.56244000       2.07917000       1.96452000      -3.31290700       4.06628900       2.54508600      -3.21378264       3.98296853       2.36421412
Fe       0.86636000       2.12990000       5.00906000     -10.85567700      -2.87102900      12.20968700     -10.95266343      -2.94504361      12.21828488
Fe       0.24697000       2.61233000       7.83061000      -0.37811800      -2.03816900      -0.08744800      -0.41242170      -1.90857041       0.09242242
Fe       0.35437000       4.66395000       8.16447000      -1.30300600       1.62250000       0.84662400      -1.33990931       1.60318684       0.76952677
Fe       0.83543000       8.00840000       3.01492000       5.54921000      -2.55787300       0.52513800       5.70744430      -2.53455703       0.37457454
Fe       2.03952000       7.84431000       6.63062000      -4.28706100       1.82495200      -1.68802900      -4.07415899       1.95453153      -1.65725601
Fe       3.34318000       0.11090000       2.96052000      -0.46571400      -0.35056300       0.37864800      -0.53397870      -0.22797063       0.46415540
Fe       3.26317000       2.11539000       1.48699000      -3.47884800      -0.03222100       0.61542300      -3.41238143      -0.28466139       0.18368425
Fe       4.14313000       2.75755000       3.31065000      -0.71378000      -2.73118300       1.93004800      -0.61148390      -2.36948834       1.83993551
Fe       2.55051000       2.67374000       7.19710000      -2.55215900      -0.93589000       1.77261600      -2.30813813      -1.15081048       1.70768600
Fe       3.61327000       2.86500000       5.46497000       1.55763200       0.20514300      -0.56676300       1.45596910       0.26827514      -0.26670784
Fe       2.62400000       4.72550000       1.39174000      -1.08585200      -1.19598700       0.59645400      -1.34815212      -1.02988769       0.69755982
Fe       2.20317000       5.21693000       3.87451000      -3.92870900      -4.38103900      -4.92199500      -3.86607587      -4.42456190      -4.99795719
Fe       3.93082000       4.37819000       8.08226000       1.07616800       0.44807800      -0.99700400       1.03518714       0.29334717      -0.91663257
Fe       2.44961000       7.01753000       1.08943000       0.32119000      -1.55635000       3.27006500       0.46022513      -1.64189320       3.25908104
Fe       3.02500000       6.15780000       5.08193000      -1.08486800       1.64126100       3.95415400      -0.64211761       1.67757253       4.08218429
Fe       5.77712000       0.44616000       0.16142000      -2.43333700       0.07175000       4.13474700      -2.46697286       0.39823063       4.20538551
Fe       5.66964000       0.14892000       2.95259000      -3.67617900       1.90971100       0.12919700      -3.62081554       1.63817083       0.31783045
Fe       5.39484000       2.66317000       1.55162000       4.08183700      -3.39937100       3.88213200       4.00748594      -3.63028904       4.02553608
Fe       5.91309000       3.40423000       8.31953000       8.90196200       5.48305700      -2.72562400       8.73225867       5.48251862      -2.71477528
Fe       4.96126000       4.63305000       3.41410000      -3.60269200      -2.00302700       2.25051900      -3.74029605      -2.21462018       2.35308915
Fe       5.11347000       6.81217000       1.78872000      -0.87770500       0.06714300      -1.61156800      -0.70543624       0.08054910      -1.54830311
Fe       5.00950000       6.45991000       8.24507000      -2.30619500      -0.19808200      -1.52355700      -2.25398976       0.03314567      -1.67609288
Fe       4.64263000       7.71190000       5.75084000       2.50156800       4.23919200      -1.55456800       2.62223154       4.24591073      -1.58669118
Fe       7.32285000       0.33022000       5.03535000      -0.99210900      -0.59745100       4.73628300      -1.02526916      -0.38865149       4.82067890
Fe       6.75330000       1.32958000       7.05071000       0.53851300       2.01290400       0.36400700       0.56761687       1.82189156       0.26839562
Fe       6.82686000       2.53028000       3.66692000      -0.08907100      -0.12987400      -0.26318300      -0.07139113      -0.22127560      -0.23154405
Fe       6.83617000       5.56618000       0.59386000       1.74434500       1.47371700      -3.32847200       1.80539629       1.61738840      -3.38561402
Fe       8.27091000       4.29855000       2.87718000       3.23308900       0.33980500       1.37352500       3.21696806       0.24981713       1.34664641
Fe       6.58774000       4.90718000       4.97515000      -1.87594500       0.58060600      -0.05143700      -2.13505390       0.58758626      -0.27122409
Fe       6.86773000       6.79187000       3.27473000       1.52763600      -2.76254700       0.67579100       1.39074962      -2.41068081       0.40438878
Fe       8.09083000       8.29691000       0.84396000      -4.18921500      -1.95965200       9.56442300      -4.21596973      -2.32367789       9.67232329
Fe       6.62133000       7.67903000       7.47205000      -3.65417600       1.51975600      -3.32990400      -3.90122419       1.25848898      -3.51471178
B        3.45077000       6.81738000       6.75435000       2.04131500      -2.79808300       3.80923700       1.91839146      -2.70111336       3.91709809
B        4.67436000       1.10514000       4.73414000       0.75036200       0.95391600      -0.52852700       0.82085109       0.86579906      -0.46063982
B        6.18153000       2.20088000       5.47737000      -4.49435700      -3.20609500      -2.27763700      -4.69969660      -3.14461181      -2.45276224
B        5.08133000       4.10197000       6.35983000       0.35152900       0.25548900      -0.65354500       0.58002329       0.34185182      -0.66502169
B        4.48663000       4.29393000       1.40792000      -0.27448100       1.04603100       0.21283300      -0.26620763       1.21223354       0.17540299
B        4.96286000       5.88068000       6.14703000       0.60492000      -1.85032800       0.29314600       0.64880032      -1.92583872       0.12347328
B        8.17242000       5.65216000       5.55863000       1.00443800       0.65677900      -0.69824300       1.01832424       0.76476022      -0.33181995
B        7.98743000       6.92663000       6.60530000       5.86774900       2.58695800      -4.05103700       5.84976838       2.52800399      -3.75217699
B        7.10769000       5.72812000       6.91109000      -2.33709700      -3.34606800       1.34633400      -2.33748807      -3.53796665       1.28239004
B        7.81665000       6.81498000       8.33858000       5.04350100      -2.41043400       0.97359300       5.17285838      -2.43319052       0.75601084
Si       0.06983000       0.14925000       7.74742000       4.12649000       2.60901100      -8.87608100       3.94755583       2.62756501      -8.85787755
Si       1.93337000       2.41223000       3.74634000      10.14534600       2.98113100     -12.18526000      10.23313478       3.10274810     -12.01086976
Si       0.75978000       6.02813000       1.69309000      -4.13401100      -0.74920300       1.02787300      -4.13910316      -0.87615065       1.04305516
Si       2.22023000       5.10313000       7.16329000      -1.58663400       1.19675500      -1.89967800      -1.77474009       1.19670544      -1.94073452
Si       3.27754000       8.17117000       8.35443000       4.04667900       4.58101600      -2.24829100       3.90414551       4.54164936      -2.47593118
Si       4.48145000       2.18337000       8.34202000      -5.72220500      -5.96162700      -4.99603400      -5.48406833      -5.81883927      -5.14173456
Si       6.36439000       4.54151000       2.12641000       2.28764700      -2.33178900       1.39384200       2.60113979      -2.24039618       1.24101949
Si       4.52267000       6.51460000       3.75633000       0.42177200       5.22743800       1.25328700       0.16931662       5.39681480       1.40593727
Si       7.68278000       0.22257000       3.11016000      -0.17295300       4.89916800      -3.86478000      -0.31817474       4.75742750      -3.99001604
Si       7.35363000       3.38410000       6.13231000       4.40786200       1.27045000       2.62604800       4.33062162       1.40689152       2.97864655
54
Lattice="8.579999685 0.0 0.0 0.0 8.579999685 0.0 0.0 0.0 8.5799996" Properties=species:S:1:pos:R:3:REF_forces:R:3:MACE_forces:R:3 config_type=Fe34B10Si10 REF_energy=-354.71875992 MACE_energy=-355.3401488596877 pbc="T T T"
Fe       0.43313000       1.19321000       2.96848000       1.47291300       2.99028000       0.61180900       1.60611593       2.98282978       0.30006567
Fe       0.91365000       1.12516000       8.09995000       2.76260400      -2.00335600       1.20968300       2.59754724      -2.17434276       1.13233093
Fe       1.17142000       2.67870000       5.23446000      -1.90323000       6.04651700       0.58026800      -1.66570121       6.30783178       0.60320756
Fe       0.60772000       3.85484000       0.87278000       2.66909500       4.89444800       4.53699300       2.68067967       5.07934374       4.26094345
Fe       1.41565000       3.44858000       3.01161000      -0.29549500       2.03729500      -0.74017400      -0.30074985       1.92782677      -0.67593609
Fe       0.04226000       2.91249000       8.09734000      -3.39897200      -2.84207300      -2.69442200      -3.15298555      -2.74340993      -2.52283278
Fe       1.33282000       7.09057000       5.22634000      -0.45239700      -1.35392500       0.92503500      -0.20248435      -1.50665048       0.81174713
Fe       2.06045000       7.92051000       0.98063000      -3.11321000      -0.30108300      -2.49280600      -3.24673319      -0.53438454      -2.32016262
Fe       2.03627000       8.24295000       3.50701000      -1.42216600       4.38122900       0.88517600      -1.50250697       4.19194229       0.53967421
Fe       0.01253000       8.02686000       7.00667000       2.58679700       0.98610200     -11.80201700       2.50188142       0.83569180     -11.96068145
Fe       3.00353000       0.57289000       6.13981000      -1.03922300       0.18357300       0.93137300      -0.70978606      -0.02644397       1.08394531
Fe       3.69949000       2.65196000       7.51811000       2.76433000      -4.34399200      -3.80269000       2.57630757      -4.14426433      -3.69273187
Fe       2.94478000       6.44154000       3.03987000       7.21319500      -3.66655800      -1.17614100       7.10784635      -3.31166090      -0.89401074
Fe       2.94309000       5.75189000       6.64956000      -6.24071800      -0.74678300       3.86021800      -6.60062397      -0.77148976       3.86970215
Fe       3.71160000       8.39321000       1.86324000       2.24845700      -0.43546600       0.28887200       2.34974043      -0.24346314       0.54151849
Fe       4.07810000       8.43915000       4.32840000       2.88035800       1.28304800      -0.49181300       2.94518241       1.49052033      -0.81496690
Fe       5.57499000       0.73262000       6.31633000      -3.12774100      -1.68249800      -0.98058200      -2.99563756      -1.74800839      -1.02004251
Fe       4.70712000       1.94493000       1.65492000      -2.04675700       4.97917500      -3.67899600      -2.15730612       4.80065488      -3.39094387
Fe       4.73401000       4.18392000       1.24748000       0.71501700       1.80608500      -0.06999200       0.71785079       2.00307797      -0.15963934
Fe       4.56687000       4.22266000       4.39618000       0.73801700       3.32591500      -2.10569900       0.61596411       3.48984532      -2.32112044
Fe       4.51224000       4.61167000       7.05684000       2.53211900      -0.41024200       0.53825400       2.98279188      -0.69596614       0.64718944
Fe       6.32808000       6.81945000       4.24288000      -3.20445400      -0.33519400      -1.28892300      -2.86503243      -0.31891604      -1.08813989
Fe       6.22240000       7.17309000       0.16230000      -3.30904600      -2.75215800       1.90373500      -3.57368528      -2.98223133       1.89732355
Fe       4.54224000       7.44382000       7.03838000       0.17895600      -5.02037800      -8.74618400       0.17213198      -5.27341511      -8.84898907
Fe       4.73272000       8.55832000       8.35561000      -0.10588400       8.96287400       6.54083400      -0.24718079       9.48306645       6.42161857
Fe       7.67285000       2.82429000       2.17742000      -2.12886900      -0.76272600      -2.06587500      -2.11407326      -0.71373591      -1.93561166
Fe       6.74071000       1.77406000       4.33655000       0.47479500       0.50025500      -0.42349800       0.15712411       0.53691421      -0.56319718
Fe       7.16362000       1.61896000       6.68131000       5.11373900       1.83737400       0.70818800       4.97423917       1.66547154       0.64401349
Fe       6.73653000       4.13840000       7.84564000       0.19062300       0.32905600       3.59274800       0.34682301       0.45936272       3.68314098
Fe       6.61248000       5.35948000       2.44590000       0.96755600      -0.77403900      -0.47053600       0.91903443      -0.77351929      -0.38367321
Fe       8.39074000       4.95678000       4.82580000       0.50677700       3.21370700       1.22596300       0.54774199       3.15205895       1.10551418
Fe       6.62275000       6.29700000       6.29237000       0.91106900      -0.58785400       1.74696000       0.85985657      -0.46279306       1.52979856
Fe       8.00875000       8.14674000       2.12563000      -1.25903800      -1.94608200      -3.37077000      -0.86250966      -1.95966223      -3.55016155
Fe       7.96861000       8.10559000       4.08816000       1.24434400       0.03207600       4.40361200       0.70550970      -0.04130278       4.64540210
B        3.14587000       1.61638000       2.59818000      -3.96044800      -1.57388800      -2.24367700      -4.10143396      -1.56019813      -2.21382154
B        4.07212000       1.93087000       3.78701000       0.55534200       0.12762300      -3.25123200       0.41542059      -0.04098713      -3.40733496
B        2.24412000       1.90783000       4.05913000      -1.80380000      -9.70850100      -5.48536600      -1.83681174      -9.87920613      -5.58950552
B        2.90130000       3.06657000       4.45062000       2.48509300       7.60479000      -1.50334300       2.76672433       7.03535865      -1.33033077
B        2.82587000       3.80138000       5.80651000       0.21675600       2.27927400       3.92227300       0.29461806       2.14553951       3.97251977
B        2.60929000       5.04297000       1.66311000       0.12617300      -0.77075900      -0.46531300      -0.04289091      -0.94382782      -0.48815453
B        2.47198000       4.95014000       4.32601000      -0.76752800      -1.31946700       0.35153300      -0.92278033      -1.11891738       0.33454989
B        2.73354000       7.81887000       7.66829000      -1.47869400      -0.15377200       0.00458000      -1.41505617      -0.12683404       0.10889722
B        5.68071000       2.28134000       7.79544000      -0.95924500       0.41857400       1.11780500      -1.05439245       0.38447177       1.11900533
B        7.77536000       3.70665000       3.76574000      -0.44877700      -1.48394500      -0.38974400      -0.50679916      -1.38111744      -0.18202163
Si       0.79518000       0.92195000       5.77957000      -1.66645900      -4.94136200      -1.10925300      -1.64193832      -5.10840240      -0.90891226
Si       0.88055000       4.20706000       6.73551000       1.15626000       3.58432200      -0.32349000       1.11995841       3.71400097      -0.27023859
Si       1.15025000       6.44729000       2.43826000      -7.77651300      -1.83655100      -1.54918700      -7.82099055      -1.63814234      -1.74801812
Si       2.82820000       3.29548000       0.50208000      -4.05499500       1.58525200       5.32597100      -4.13869894       1.40119921       5.14685063
Si       4.14031000       6.38272000       0.30005000      -2.16949800      -2.44928300       2.57761000      -2.30542739      -2.39852721       2.43443368
Si       3.68345000       6.43010000       5.01209000       3.98893100       0.98565200      -2.13453700       3.91415057       1.17929039      -2.02501373
Si       5.73751000       0.59059000       2.53265000       5.08228400      -4.90021500       2.23852200       5.20761874      -5.00788327       2.54709280
Si       4.51163000       2.47994000       5.36819000       2.60737700      -2.86786400       7.12589500       2.70677398      -2.58232721       7.31316565
Si       6.43436000       3.75222000       5.86206000       1.38008400       0.66155200      -3.64612400       1.48013357       0.69319795      -3.78279610
Si       8.06432000       7.52318000       8.55473000       2.36409700      -3.06603600      11.34847700       2.71444916      -2.74746640      11.39533819
18
Lattice="6.5 0.0 0.0 0.0 6.5 0.0 0.0 0.0 6.5" Properties=species:S:1:pos:R:3:REF_forces:R:3:MACE_forces:R:3 config_type=Fe12B3Si3 REF_energy=-113.87843945 MACE_energy=-112.52614307879463 pbc="T T T"
Fe       5.40234000       5.43492000       1.53729000      -1.39532100       2.04028400       0.71142300      -1.14076996       2.05514873       0.77754662
Fe       2.09750000       2.10361000       0.54730000       2.35673700      -0.33103000       1.27254800       2.78614785      -0.23557426       1.32141548
Fe       2.84360000       1.73250000       3.81271000       2.28004000      -1.18251600      -0.27344700       2.26793118      -1.11505451      -0.32031170
Fe       0.77541000       4.93717000       1.04317000       1.56096300      -3.83372900       1.76362000       1.54137526      -3.69490950       1.58090223
Fe       0.07665000       3.70431000       3.74351000      -0.75952900      -0.39175400      -2.23189700      -0.82192387      -0.46606650      -2.39172409
Fe       4.77171000       3.58949000       4.78220000      -1.99219600      -4.62409700       0.48420500      -1.84519220      -4.55438081       0.46850822
Fe       4.12430000       1.49867000       1.46476000       0.29771700      -2.38794700       0.28396300       0.38469213      -2.68769860       0.14237701
Fe       0.95387000       5.17746000       5.28728000      -0.57085000      -0.50160400      -1.80733600      -0.79813061      -0.65888509      -1.38217957
Fe       1.93602000       3.09888000       2.36598000      -0.08855100       0.43128300      -0.27209000      -0.24546038       0.60517472      -0.36740496
Fe       5.69037000       1.28357000       4.20026000      -0.40866000      -0.49067900       0.18976600      -0.65484615      -0.37924220       0.23535316
Fe       1.94321000       2.86141000       5.39871000      -0.55906500       0.73218900      -1.80086600      -0.73254742       1.20956434      -2.21734176
Fe       4.33122000       5.38124000       5.25469000      -0.73272900       4.56545400       1.52017900      -0.61706405       4.52032479       1.59754336
B        0.37598000       1.64060000       1.21420000      -3.21263000       2.85095800       0.76078000      -3.25682183       2.73183384       1.05288161
B        1.88110000       4.04794000       3.96741000       2.48956600       2.45119300      -0.32261600       2.50506556       2.18681454      -0.22842766
B        3.63878000       0.94242000       5.41981000      -0.01444500       0.67937600       0.95779200       0.00329233       0.78882430       1.10057686
Si       1.19380000       0.26963000       0.19686000       0.54051800       0.24528300      -1.93219100       0.57186275      -0.01636947      -1.88585823
Si       4.57825000       3.47658000       1.16117000       0.15934200       1.26766700      -0.81102600       0.20052655       1.33605373      -0.76199583
Si       1.09558000       0.76720000       2.75124000       0.04909300      -1.52033200       1.50719200      -0.14813712      -1.62555805       1.27813925
54
Lattice="8.579999685 0.0 0.0 0.0 8.579999685 0.0 0.0 0.0 8.5799996" Properties=species:S:1:pos:R:3:REF_forces:R:3:MACE_forces:R:3 config_type=Fe34B10Si10 REF_energy=-356.0869274 MACE_energy=-357.0565554937068 pbc="T T T"
Fe       0.92877000       1.08311000       2.12831000      -0.53214900      -1.15432400       0.53007800      -0.60718625      -1.15268454       0.47776213
Fe       1.12794000       0.45096000       7.37327000      -2.86345100       2.18226700       1.45805300      -2.75973641       2.11542580       1.42138796
Fe       0.91289000       3.61082000       1.96264000      -1.66570100       0.50807500      -4.76654600      -1.59131148       0.07250992      -4.45324984
Fe       0.97242000       3.25012000       3.83975000      -0.85629000      -1.23507100      -0.91491200      -1.07377693      -1.04674080      -0.66135606
Fe       1.43574000       3.84332000       5.84621000      -1.94378300      -0.72872400       4.94145300      -2.05829813      -0.52880884       4.70296777
Fe       0.45897000       5.99881000       1.32384000       1.86679900       1.45939200      -0.33976700       1.67202779       1.45484427      -0.16902836
Fe       0.05714000       6.25044000       6.01250000       0.66851500      -0.88142700       1.67028200       0.61442651      -0.76415776       1.74513240
Fe       1.87526000       7.05991000       7.27744000      -5.90957000       6.81146600       5.95768600      -5.61543029       6.97783858       5.79318763
Fe       4.21220000       0.80536000       3.81626000       0.44958900      -1.97725700       0.54591300       0.53452957      -1.80145299       0.45979800
Fe       2.64196000       0.75311000       5.88605000       0.80305000      -0.92688600      -1.50973400       0.50277364      -1.09243621      -1.54666369
Fe       2.51735000       4.27963000       7.86001000      -0.17185400       2.88247300       0.00075600      -0.19332259       3.06197693       0.07456323
Fe       2.46175000       4.76211000       4.38544000       2.27245000       6.36429500      -0.60000700       2.26150865       6.36969331      -0.45823415
Fe       3.99132000       4.46692000       6.09268000      -0.21521200      -1.96607600      -0.25853400      -0.33990277      -2.19560239      -0.12695417
Fe       4.03283000       6.20484000       2.50717000       0.32509400      -1.83048700       1.07686200       0.33949949      -1.79502163       1.11964415
Fe       2.62183000       8.12097000       1.25125000      -5.45108600      -1.04608100      -0.88869000      -5.60627676      -1.09600894      -0.66766688
Fe       2.34208000       7.49949000       3.33705000      -1.45221900       0.10179900       1.96325000      -1.30552234       0.10637875       1.58299485
Fe       4.67554000       0.98699000       8.35162000       1.97529500       0.95938300       0.07305200       1.69604073       0.85546236       0.34441414
Fe       4.68615000       2.28426000       1.60336000       6.03713100       4.39249100       1.56082500       6.15254503       4.36120579       1.10217499
Fe       4.95897000       4.28949000       0.91503000       1.24258400       3.77490300      -1.07876200       0.80563300       3.54137432      -1.16871830
Fe       5.62605000       3.84953000       3.25301000      -4.56775200       3.43217100       2.09526400      -4.71599031       3.42236807       1.95426196
Fe       5.63153000       5.70233000       4.67966000       0.04558900       0.36352900      -0.74034800       0.12859884      -0.05675602      -0.59299716
Fe       5.00954000       6.14620000       6.89198000       4.51113600      -2.60361300       1.43664400       4.57918715      -2.58873386       1.27966749
Fe       5.34723000       7.32984000       0.56425000       3.41130600      -7.55812200      -7.44238600       3.18149274      -7.16527952      -7.11055424
Fe       4.57141000       8.20633000       1.67615000      -2.51651100       6.57056000       9.11650700      -2.25544614       6.23801650       8.83182631
Fe       5.67084000       7.83697000       6.02451000      -0.02983000       3.57151200       0.33120700      -0.04523473       3.69165883       0.46193760
Fe       7.65837000       1.05332000       0.64336000       1.95813700       2.93603900      -3.62028800       1.77815684       2.80604339      -3.40288820
Fe       7.23579000       1.49494000       3.62009000       0.88838800      -1.50203300       3.00240400       1.06777113      -1.49856056       3.00395715
Fe       6.96409000       1.59543000       6.70415000       0.40175100      -2.57633900      -0.54943900       0.44150090      -2.38350868      -0.46722358
Fe       6.97946000       3.05325000       2.27831000       3.01329100      -2.85779700      -7.80747400       2.65544194      -2.89294757      -7.44832365
Fe       7.05854000       3.62734000       7.13255000       0.94483300       2.42104600       2.56329500       1.00139047       2.27352829       2.35494726
Fe       7.47490000       4.49325000       0.92243000      -3.13561000       0.06366500       0.11142200      -2.81165245       0.41495898      -0.12819260
Fe       7.76499000       5.40883000       4.05655000       3.42051700      -2.49950500       1.10150300       3.64769893      -2.67568937       1.15337795
Fe       6.91686000       6.16423000       2.38917000      -4.34160700       0.52717700      -3.24358900      -4.39035181       0.88390092      -3.25583436
Fe       7.31773000       7.39473000       4.73130000      -1.41907300       3.06948200       1.38572900      -1.46718054       2.97503575       1.33077321
B        1.63947000       5.44017000       2.85377000      -1.37965300       1.67099600      -0.34434500      -1.40628798       1.77226237      -0.50470253
B        3.47444000       1.29905000       1.69513000      -6.04542900      -7.46227000      -1.52467000      -6.14083773      -6.99988437      -1.30634955
B        2.31673000       1.42955000       3.77944000      -1.85652800      -2.14982900       3.21956500      -1.85855563      -1.94048477       3.27862024
B        3.17088000       0.01260000       8.16689000      -2.14308300      -0.12737100      -3.63430700      -2.07650869       0.14090613      -3.47032710
B        2.48887000       2.23189000       2.44876000      -1.30373000       3.96631200      -0.94871100      -0.93459033       3.66887314      -1.24037263
B        3.55016000       3.21990000       0.17024000       2.13469500      -3.52588700       0.23974700       2.17544446      -3.61614188       0.38524831
B        3.12966000       3.07291000       4.24572000      -6.99085300       0.34377600      -0.16579100      -6.82300104       0.09522539      -0.16107406
B        2.38358000       5.95301000       6.34325000       2.25901800      -8.76611800      -6.31465800       2.12536374      -9.07690520      -6.45621893
B        4.46260000       2.62992000       4.23823000       7.08507900      -1.75449200       0.40993300       6.93726367      -1.82337787       0.36987121
B        7.51183000       3.59374000       3.85724000       1.49621300      -1.20378300       3.39561400       1.49117707      -0.99554824       3.23510363
Si       0.50050000       1.66927000       5.10425000      -1.02554400      -2.67263500       2.61432900      -0.78431099      -2.97455181       2.53391249
Si       0.41923000       4.50138000       8.15701000       0.82744200      -0.47721100      -2.57541600       1.11967327      -0.43977143      -2.76550526
Si       2.90131000       4.25049000       1.93860000       2.71957100       0.04497600      -0.88170100       2.68739514       0.00025234      -1.01736578
Si       3.74353000       6.85388000       5.19884000      -1.20766000       1.80214700      -2.20114300      -1.08934659       1.95201085      -2.05787583
Si       3.54209000       6.47938000       8.21357000      -0.45014500      -1.75854100       4.24377300      -0.57643112      -2.01053328       4.42464022
Si       4.55252000       1.74669000       6.40118000       0.28733400       0.20348600      -1.69136000       0.29459579       0.24282150      -1.67989435
Si       5.87020000       3.30923000       5.41310000       1.93974000       0.55942400      -1.14043100       1.69789143       0.81906686      -1.27894079
Si       6.68392000       0.09389000       2.07850000      -2.78148600      -1.30329400       2.70552900      -2.57534215      -1.24043447       2.86488067
Si       7.30980000       7.36953000       0.08595000       4.18267400      -0.22507900      -1.67891000       4.46884732      -0.36120781      -1.76343987
Si       8.41387000       7.50606000       2.97540000       5.08859000       1.78741200      -0.88875800       5.04395697       1.89959147      -0.92710103
54
Lattice="8.579999685 0.0 0.0 0.0 8.579999685 0.0 0.0 0.0 8.5799996" Properties=species:S:1:pos:R:3:REF_forces:R:3:MACE_forces:R:3 config_type=Fe34B10Si10 REF_energy=-359.84864784 MACE_energy=-360.3877457854045 pbc="T T T"
Fe       0.39531000       2.37288000       0.87042000       3.27925500       2.43832800      -1.60261100       3.18165427       2.59397660      -1.70066161
Fe       0.75383000       1.65209000       3.11094000       1.30783500      -0.34615400      -0.09267000       1.39163120      -0.66666756       0.04498582
Fe       1.33201000       3.79282000       7.26231000      -2.40668100      -1.18131200       0.32245500      -2.55204042      -1.18685855       0.20577134
Fe       0.64436000       4.41396000       2.97573000       2.42004200      -2.26182600       0.38963900       2.46538021      -2.06062901       0.21207629
Fe       0.14751000       6.42079000       3.51005000      -3.07002100       1.32407200      -2.30638400      -3.19244301       1.33408431      -2.49559909