54
Lattice="8.579999685 0.0 0.0 0.0 8.579999685 0.0 0.0 0.0 8.5799996" Properties=species:S:1:pos:R:3:REF_forces:R:3:MACE_forces:R:3 config_type=Fe34B10Si10 REF_energy=-352.89092233 MACE_energy=-353.28847299617007 pbc="T T T"
Fe       1.46495000       0.71583000       1.12880000       3.73230100      -3.41607500      -3.76209700       3.71865538      -3.46397636      -3.61783461
Fe       0.56244000       2.07917000       1.96452000      -3.31290700       4.06628900       2.54508600      -3.35729446       4.08878313       2.38160314
Fe       0.86636000       2.12990000       5.00906000     -10.85567700      -2.87102900      12.20968700     -10.91099919      -2.93644032      12.19723499
Fe       0.24697000       2.61233000       7.83061000      -0.37811800      -2.03816900      -0.08744800      -0.34503961      -2.08649825       0.10828191
Fe       0.35437000       4.66395000       8.16447000      -1.30300600       1.62250000       0.84662400      -1.36619207       1.72325856       0.81536822
Fe       0.83543000       8.00840000       3.01492000       5.54921000      -2.55787300       0.52513800       5.57641581      -2.64686647       0.45402438
Fe       2.03952000       7.84431000       6.63062000      -4.28706100       1.82495200      -1.68802900      -4.02927931       2.03885570      -1.69775856
Fe       3.34318000       0.11090000       2.96052000      -0.46571400      -0.35056300       0.37864800      -0.48506161      -0.18066297       0.47491939
Fe       3.26317000       2.11539000       1.48699000      -3.47884800      -0.03222100       0.61542300      -3.30990047      -0.27222143       0.22233175
Fe       4.14313000       2.75755000       3.31065000      -0.71378000      -2.73118300       1.93004800      -0.69221024      -2.45634400       1.88844927
Fe       2.55051000       2.67374000       7.19710000      -2.55215900      -0.93589000       1.77261600      -2.32856700      -1.03370476       1.70826294
Fe       3.61327000       2.86500000       5.46497000       1.55763200       0.20514300      -0.56676300       1.46038470       0.32678071      -0.27779009
Fe       2.62400000       4.72550000       1.39174000      -1.08585200      -1.19598700       0.59645400      -1.35851762      -0.94528856       0.69769531
Fe       2.20317000       5.21693000       3.87451000      -3.92870900      -4.38103900      -4.92199500      -3.84311243      -4.32475560      -5.00002604
Fe       3.93082000       4.37819000       8.08226000       1.07616800       0.44807800      -0.99700400       1.00143313       0.25820976      -1.04297679
Fe       2.44961000       7.01753000       1.08943000       0.32119000      -1.55635000       3.27006500       0.44778984      -1.62987947       3.33954495
Fe       3.02500000       6.15780000       5.08193000      -1.08486800       1.64126100       3.95415400      -0.41244598       1.58533299       3.91678693
Fe       5.77712000       0.44616000       0.16142000      -2.43333700       0.07175000       4.13474700      -2.41824868       0.43070671       4.18461843
Fe       5.66964000       0.14892000       2.95259000      -3.67617900       1.90971100       0.12919700      -3.70208413       1.66080735       0.29218269
Fe       5.39484000       2.66317000       1.55162000       4.08183700      -3.39937100       3.88213200       3.97977234      -3.75707303       4.11897770
Fe       5.91309000       3.40423000       8.31953000       8.90196200       5.48305700      -2.72562400       8.70214930       5.47097388      -2.75315444
Fe       4.96126000       4.63305000       3.41410000      -3.60269200      -2.00302700       2.25051900      -3.87671256      -2.28938394       2.39987976
Fe       5.11347000       6.81217000       1.78872000      -0.87770500       0.06714300      -1.61156800      -0.69551722       0.12089455      -1.60356965
Fe       5.00950000       6.45991000       8.24507000      -2.30619500      -0.19808200      -1.52355700      -2.19997345      -0.03231695      -1.70405643
Fe       4.64263000       7.71190000       5.75084000       2.50156800       4.23919200      -1.55456800       2.56394092       4.25401191      -1.62032442
Fe       7.32285000       0.33022000       5.03535000      -0.99210900      -0.59745100       4.73628300      -1.01437869      -0.37726030       4.73055717
Fe       6.75330000       1.32958000       7.05071000       0.53851300       2.01290400       0.36400700       0.48544771       1.87355217       0.32616924
Fe       6.82686000       2.53028000       3.66692000      -0.08907100      -0.12987400      -0.26318300       0.03298849      -0.19782960      -0.23915063
Fe       6.83617000       5.56618000       0.59386000       1.74434500       1.47371700      -3.32847200       1.80684078       1.82334824      -3.46978739
Fe       8.27091000       4.29855000       2.87718000       3.23308900       0.33980500       1.37352500       3.11126749       0.18436818       1.34805281
Fe       6.58774000       4.90718000       4.97515000      -1.87594500       0.58060600      -0.05143700      -2.07012161       0.55362831      -0.58014801
Fe       6.86773000       6.79187000       3.27473000       1.52763600      -2.76254700       0.67579100       1.47005642      -2.45925202       0.35610348
Fe       8.09083000       8.29691000       0.84396000      -4.18921500      -1.95965200       9.56442300      -4.26202089      -2.28850850       9.60671076
Fe       6.62133000       7.67903000       7.47205000      -3.65417600       1.51975600      -3.32990400      -3.97141491       1.31533392      -3.47123557
B        3.45077000       6.81738000       6.75435000       2.04131500      -2.79808300       3.80923700       1.92547981      -2.81131456       3.93682065
B        4.67436000       1.10514000       4.73414000       0.75036200       0.95391600      -0.52852700       0.81244341       0.89975372      -0.41801738
B        6.18153000       2.20088000       5.47737000      -4.49435700      -3.20609500      -2.27763700      -4.64505785      -3.16678305      -2.41376833
B        5.08133000       4.10197000       6.35983000       0.35152900       0.25548900      -0.65354500       0.50981320       0.35772796      -0.60384221
B        4.48663000       4.29393000       1.40792000      -0.27448100       1.04603100       0.21283300      -0.22364678       1.20077538       0.23405068
B        4.96286000       5.88068000       6.14703000       0.60492000      -1.85032800       0.29314600       0.48494114      -1.90846384       0.13337963
B        8.17242000       5.65216000       5.55863000       1.00443800       0.65677900      -0.69824300       1.02291809       0.77480212      -0.26185916
B        7.98743000       6.92663000       6.60530000       5.86774900       2.58695800      -4.05103700       5.76331062       2.29821156      -3.69202009
B        7.10769000       5.72812000       6.91109000      -2.33709700      -3.34606800       1.34633400      -2.11686709      -3.38558406       1.58739065
B        7.81665000       6.81498000       8.33858000       5.04350100      -2.41043400       0.97359300       5.05699769      -2.62338925       0.57443293
Si       0.06983000       0.14925000       7.74742000       4.12649000       2.60901100      -8.87608100       4.01440662       2.61145435      -8.78225799
Si       1.93337000       2.41223000       3.74634000      10.14534600       2.98113100     -12.18526000      10.23887562       3.06033675     -12.01019861
Si       0.75978000       6.02813000       1.69309000      -4.13401100      -0.74920300       1.02787300      -4.14098366      -0.84104511       0.97679364
Si       2.22023000       5.10313000       7.16329000      -1.58663400       1.19675500      -1.89967800      -1.64756907       1.16020073      -1.87656316
Si       3.27754000       8.17117000       8.35443000       4.04667900       4.58101600      -2.24829100       3.93103329       4.56289445      -2.39563048
Si       4.48145000       2.18337000       8.34202000      -5.72220500      -5.96162700      -4.99603400      -5.47980501      -5.94696200      -5.13948965
Si       6.36439000       4.54151000       2.12641000       2.28764700      -2.33178900       1.39384200       2.53872848      -2.13490637       1.32009298
Si       4.52267000       6.51460000       3.75633000       0.42177200       5.22743800       1.25328700       0.12140265       5.29933006       1.34368084
Si       7.68278000       0.22257000       3.11016000      -0.17295300       4.89916800      -3.86478000      -0.25445168       4.83732289      -3.94310358
Si       7.35363000       3.38410000       6.13231000       4.40786200       1.27045000       2.62604800       4.37998038       1.42505473       2.94016605
54
Lattice="8.579999685 0.0 0.0 0.0 8.579999685 0.0 0.0 0.0 8.5799996" Properties=species:S:1:pos:R:3:REF_forces:R:3:MACE_forces:R:3 config_type=Fe34B10Si10 REF_energy=-354.71875992 MACE_energy=-355.37125676181483 pbc="T T T"
Fe       0.43313000       1.19321000       2.96848000       1.47291300       2.99028000       0.61180900       1.44953614       2.90570598       0.34251177
Fe       0.91365000       1.12516000       8.09995000       2.76260400      -2.00335600       1.20968300       2.40595539      -1.92901743       1.06009547
Fe       1.17142000       2.67870000       5.23446000      -1.90323000       6.04651700       0.58026800      -1.72996597       6.14000264       0.39460245
Fe       0.60772000       3.85484000       0.87278000       2.66909500       4.89444800       4.53699300       2.58383639       5.05542839       4.17899205
Fe       1.41565000       3.44858000       3.01161000      -0.29549500       2.03729500      -0.74017400      -0.05549883       1.92763265      -0.66061711
Fe       0.04226000       2.91249000       8.09734000      -3.39897200      -2.84207300      -2.69442200      -2.80166838      -2.95869905      -2.42326780
Fe       1.33282000       7.09057000       5.22634000      -0.45239700      -1.35392500       0.92503500      -0.22889387      -1.50220500       0.96482882
Fe       2.06045000       7.92051000       0.98063000      -3.11321000      -0.30108300      -2.49280600      -3.21471447      -0.41754971      -2.45569835
Fe       2.03627000       8.24295000       3.50701000      -1.42216600       4.38122900       0.88517600      -1.49709901       4.11484305       0.64563277
Fe       0.01253000       8.02686000       7.00667000       2.58679700       0.98610200     -11.80201700       2.44942641       0.89780710     -11.88067413
Fe       3.00353000       0.57289000       6.13981000      -1.03922300       0.18357300       0.93137300      -0.77829004       0.12317848       1.00493122
Fe       3.69949000       2.65196000       7.51811000       2.76433000      -4.34399200      -3.80269000       2.60319695      -4.11435751      -3.67138096
Fe       2.94478000       6.44154000       3.03987000       7.21319500      -3.66655800      -1.17614100       7.00011218      -3.47071764      -1.01382174
Fe       2.94309000       5.75189000       6.64956000      -6.24071800      -0.74678300       3.86021800      -6.44126922      -0.63964431       3.92986176
Fe       3.71160000       8.39321000       1.86324000       2.24845700      -0.43546600       0.28887200       2.28273704      -0.13835203       0.68849001
Fe       4.07810000       8.43915000       4.32840000       2.88035800       1.28304800      -0.49181300       2.85378151       1.34392608      -0.75613579
Fe       5.57499000       0.73262000       6.31633000      -3.12774100      -1.68249800      -0.98058200      -2.82227723      -1.70030738      -0.92128402
Fe       4.70712000       1.94493000       1.65492000      -2.04675700       4.97917500      -3.67899600      -2.15438484       4.78183980      -3.43967472
Fe       4.73401000       4.18392000       1.24748000       0.71501700       1.80608500      -0.06999200       0.72243067       2.01214710      -0.10927068
Fe       4.56687000       4.22266000       4.39618000       0.73801700       3.32591500      -2.10569900       0.52083901       3.16647782      -2.18438084
Fe       4.51224000       4.61167000       7.05684000       2.53211900      -0.41024200       0.53825400       2.96862478      -0.75506402       0.48378395
Fe       6.32808000       6.81945000       4.24288000      -3.20445400      -0.33519400      -1.28892300      -2.79190417      -0.23976637      -1.08765302
Fe       6.22240000       7.17309000       0.16230000      -3.30904600      -2.75215800       1.90373500      -3.52462623      -2.99719718       2.06330182
Fe       4.54224000       7.44382000       7.03838000       0.17895600      -5.02037800      -8.74618400       0.28897353      -5.24749968      -8.88443973
Fe       4.73272000       8.55832000       8.35561000      -0.10588400       8.96287400       6.54083400      -0.24489610       9.40353186       6.19449293
Fe       7.67285000       2.82429000       2.17742000      -2.12886900      -0.76272600      -2.06587500      -2.08468282      -0.83182157      -1.98519953
Fe       6.74071000       1.77406000       4.33655000       0.47479500       0.50025500      -0.42349800       0.07842886       0.42576032      -0.46405841
Fe       7.16362000       1.61896000       6.68131000       5.11373900       1.83737400       0.70818800       4.74418502       1.65692681       0.64346253
Fe       6.73653000       4.13840000       7.84564000       0.19062300       0.32905600       3.59274800       0.14728929       0.48622921       3.62972016
Fe       6.61248000       5.35948000       2.44590000       0.96755600      -0.77403900      -0.47053600       0.84393397      -0.66352827      -0.48721374
Fe       8.39074000       4.95678000       4.82580000       0.50677700       3.21370700       1.22596300       0.61360494       3.12007297       1.08415793
Fe       6.62275000       6.29700000       6.29237000       0.91106900      -0.58785400       1.74696000       0.81607273      -0.47925284       1.60362039
Fe       8.00875000       8.14674000       2.12563000      -1.25903800      -1.94608200      -3.37077000      -0.87257223      -1.94562801      -3.40509151
Fe       7.96861000       8.10559000       4.08816000       1.24434400       0.03207600       4.40361200       0.70753675       0.02996134       4.52956772
B        3.14587000       1.61638000       2.59818000      -3.96044800      -1.57388800      -2.24367700      -3.97636582      -1.49640345      -2.04669139
B        4.07212000       1.93087000       3.78701000       0.55534200       0.12762300      -3.25123200       0.43934181       0.16614248      -3.18295064
B        2.24412000       1.90783000       4.05913000      -1.80380000      -9.70850100      -5.48536600      -1.85057218      -9.95914496      -5.60108919
B        2.90130000       3.06657000       4.45062000       2.48509300       7.60479000      -1.50334300       2.88103823       7.27786760      -1.53170300
B        2.82587000       3.80138000       5.80651000       0.21675600       2.27927400       3.92227300       0.30766986       2.13011466       3.88211688
B        2.60929000       5.04297000       1.66311000       0.12617300      -0.77075900      -0.46531300      -0.05135045      -0.78039521      -0.41801756
B        2.47198000       4.95014000       4.32601000      -0.76752800      -1.31946700       0.35153300      -0.81636664      -1.21553953       0.37574773
B        2.73354000       7.81887000       7.66829000      -1.47869400      -0.15377200       0.00458000      -1.52259522      -0.17010556       0.20414987
B        5.68071000       2.28134000       7.79544000      -0.95924500       0.41857400       1.11780500      -0.94983299       0.35162994       1.05348686
B        7.77536000       3.70665000       3.76574000      -0.44877700      -1.48394500      -0.38974400      -0.55120361      -1.39436133      -0.05306534
Si       0.79518000       0.92195000       5.77957000      -1.66645900      -4.94136200      -1.10925300      -1.62142708      -5.07605618      -0.94877373
Si       0.88055000       4.20706000       6.73551000       1.15626000       3.58432200      -0.32349000       1.10992583       3.74948494      -0.22710180
Si       1.15025000       6.44729000       2.43826000      -7.77651300      -1.83655100      -1.54918700      -7.87986788      -1.71387146      -1.71142001
Si       2.82820000       3.29548000       0.50208000      -4.05499500       1.58525200       5.32597100      -4.11081522       1.45013985       5.25603875
Si       4.14031000       6.38272000       0.30005000      -2.16949800      -2.44928300       2.57761000      -2.24979984      -2.46021357       2.52764285
Si       3.68345000       6.43010000       5.01209000       3.98893100       0.98565200      -2.13453700       3.84651656       1.16986408      -2.09721664
Si       5.73751000       0.59059000       2.53265000       5.08228400      -4.90021500       2.23852200       5.11610098      -4.89471712       2.49485305
Si       4.51163000       2.47994000       5.36819000       2.60737700      -2.86786400       7.12589500       2.76889732      -2.66748730       7.02678301
Si       6.43436000       3.75222000       5.86206000       1.38008400       0.66155200      -3.64612400       1.55344779       0.76359442      -3.75128745
Si       8.06432000       7.52318000       8.55473000       2.36409700      -3.06603600      11.34847700       2.71950039      -2.79140590      11.13630607
18
Lattice="6.5 0.0 0.0 0.0 6.5 0.0 0.0 0.0 6.5" Properties=species:S:1:pos:R:3:REF_forces:R:3:MACE_forces:R:3 config_type=Fe12B3Si3 REF_energy=-113.87843945 MACE_energy=-113.06256872320776 pbc="T T T"
Fe       5.40234000       5.43492000       1.53729000      -1.39532100       2.04028400       0.71142300      -1.05163744       1.89827393       0.69828578
Fe       2.09750000       2.10361000       0.54730000       2.35673700      -0.33103000       1.27254800       2.51500869      -0.06985140       1.20096924
Fe       2.84360000       1.73250000       3.81271000       2.28004000      -1.18251600      -0.27344700       2.18632465      -0.98382291      -0.19409918
Fe       0.77541000       4.93717000       1.04317000       1.56096300      -3.83372900       1.76362000       1.32610885      -3.49117861       1.51618748
Fe       0.07665000       3.70431000       3.74351000      -0.75952900      -0.39175400      -2.23189700      -1.10496075      -0.47021659      -2.28106573
Fe       4.77171000       3.58949000       4.78220000      -1.99219600      -4.62409700       0.48420500      -1.71372998      -4.52754254       0.39844641
Fe       4.12430000       1.49867000       1.46476000       0.29771700      -2.38794700       0.28396300       0.30964430      -2.64906466       0.10368076
Fe       0.95387000       5.17746000       5.28728000      -0.57085000      -0.50160400      -1.80733600      -0.94851808      -0.70536485      -1.31851053
Fe       1.93602000       3.09888000       2.36598000      -0.08855100       0.43128300      -0.27209000      -0.19481399       0.55764261      -0.47932488
Fe       5.69037000       1.28357000       4.20026000      -0.40866000      -0.49067900       0.18976600      -0.76126178      -0.28223752       0.24261419
Fe       1.94321000       2.86141000       5.39871000      -0.55906500       0.73218900      -1.80086600      -0.52671483       0.72878883      -1.90147487
Fe       4.33122000       5.38124000       5.25469000      -0.73272900       4.56545400       1.52017900      -0.62002150       4.34530183       1.53137418
B        0.37598000       1.64060000       1.21420000      -3.21263000       2.85095800       0.76078000      -3.04570492       2.71964114       0.88008954
B        1.88110000       4.04794000       3.96741000       2.48956600       2.45119300      -0.32261600       2.68499306       2.34797226      -0.30971540
B        3.63878000       0.94242000       5.41981000      -0.01444500       0.67937600       0.95779200       0.15450402       0.82743401       1.10091938
Si       1.19380000       0.26963000       0.19686000       0.54051800       0.24528300      -1.93219100       0.66801089      -0.02020059      -1.89177031
Si       4.57825000       3.47658000       1.16117000       0.15934200       1.26766700      -0.81102600       0.19026347       1.45020874      -0.75270307
Si       1.09558000       0.76720000       2.75124000       0.04909300      -1.52033200       1.50719200      -0.06749466      -1.67578369       1.45609700
54
Lattice="8.579999685 0.0 0.0 0.0 8.579999685 0.0 0.0 0.0 8.5799996" Properties=species:S:1:pos:R:3:REF_forces:R:3:MACE_forces:R:3 config_type=Fe34B10Si10 REF_energy=-356.0869274 MACE_energy=-356.9472381390381 pbc="T T T"
Fe       0.92877000       1.08311000       2.12831000      -0.53214900      -1.15432400       0.53007800      -0.68952559      -1.21639385       0.41909550
Fe       1.12794000       0.45096000       7.37327000      -2.86345100       2.18226700       1.45805300      -2.85195296       1.98598160       1.46175584
Fe       0.91289000       3.61082000       1.96264000      -1.66570100       0.50807500      -4.76654600      -1.67170459       0.32329162      -4.78232728
Fe       0.97242000       3.25012000       3.83975000      -0.85629000      -1.23507100      -0.91491200      -1.06654096      -1.20771633      -0.27950669
Fe       1.43574000       3.84332000       5.84621000      -1.94378300      -0.72872400       4.94145300      -2.07359515      -0.56568805       4.66485513
Fe       0.45897000       5.99881000       1.32384000       1.86679900       1.45939200      -0.33976700       1.64375758       1.57142565      -0.15931124
Fe       0.05714000       6.25044000       6.01250000       0.66851500      -0.88142700       1.67028200       0.73370627      -0.76665479       1.76394615
Fe       1.87526000       7.05991000       7.27744000      -5.90957000       6.81146600       5.95768600      -5.76172703       7.20375589       5.95214745
Fe       4.21220000       0.80536000       3.81626000       0.44958900      -1.97725700       0.54591300       0.53441486      -1.90712281       0.45108342
Fe       2.64196000       0.75311000       5.88605000       0.80305000      -0.92688600      -1.50973400       0.56415879      -1.07393284      -1.58015656
Fe       2.51735000       4.27963000       7.86001000      -0.17185400       2.88247300       0.00075600       0.00955408       2.96499597       0.27276681
Fe       2.46175000       4.76211000       4.38544000       2.27245000       6.36429500      -0.60000700       2.19594971       6.31507928      -0.61117399
Fe       3.99132000       4.46692000       6.09268000      -0.21521200      -1.96607600      -0.25853400      -0.19884181      -2.18909607      -0.18264027
Fe       4.03283000       6.20484000       2.50717000       0.32509400      -1.83048700       1.07686200       0.42487825      -1.75418871       1.13306373
Fe       2.62183000       8.12097000       1.25125000      -5.45108600      -1.04608100      -0.88869000      -5.53083162      -1.07727735      -0.60223501
Fe       2.34208000       7.49949000       3.33705000      -1.45221900       0.10179900       1.96325000      -1.24283090       0.20456442       1.60454854
Fe       4.67554000       0.98699000       8.35162000       1.97529500       0.95938300       0.07305200       1.69269670       0.81153444       0.37855086
Fe       4.68615000       2.28426000       1.60336000       6.03713100       4.39249100       1.56082500       6.20947823       4.34368637       1.16988450
Fe       4.95897000       4.28949000       0.91503000       1.24258400       3.77490300      -1.07876200       0.72944884       3.49964957      -1.25683279
Fe       5.62605000       3.84953000       3.25301000      -4.56775200       3.43217100       2.09526400      -4.58112167       3.51382199       1.90942536
Fe       5.63153000       5.70233000       4.67966000       0.04558900       0.36352900      -0.74034800       0.03863150      -0.05785138      -0.59837982
Fe       5.00954000       6.14620000       6.89198000       4.51113600      -2.60361300       1.43664400       4.55940090      -2.38868702       1.40672720
Fe       5.34723000       7.32984000       0.56425000       3.41130600      -7.55812200      -7.44238600       3.37025843      -7.00939250      -7.21494863
Fe       4.57141000       8.20633000       1.67615000      -2.51651100       6.57056000       9.11650700      -2.64212814       6.10944913       8.66592247
Fe       5.67084000       7.83697000       6.02451000      -0.02983000       3.57151200       0.33120700      -0.09080306       3.66560870       0.38632787
Fe       7.65837000       1.05332000       0.64336000       1.95813700       2.93603900      -3.62028800       1.88604111       2.96311271      -3.52306709
Fe       7.23579000       1.49494000       3.62009000       0.88838800      -1.50203300       3.00240400       0.96358156      -1.56723143       3.06310956
Fe       6.96409000       1.59543000       6.70415000       0.40175100      -2.57633900      -0.54943900       0.52015730      -2.53875929      -0.52954694
Fe       6.97946000       3.05325000       2.27831000       3.01329100      -2.85779700      -7.80747400       2.46005172      -2.94854694      -7.23464832
Fe       7.05854000       3.62734000       7.13255000       0.94483300       2.42104600       2.56329500       1.02889468       2.46025385       2.48782765
Fe       7.47490000       4.49325000       0.92243000      -3.13561000       0.06366500       0.11142200      -2.91375799       0.43625744      -0.28084601
Fe       7.76499000       5.40883000       4.05655000       3.42051700      -2.49950500       1.10150300       3.50677742      -2.66998541       1.12510073
Fe       6.91686000       6.16423000       2.38917000      -4.34160700       0.52717700      -3.24358900      -4.31748208       0.62788730      -3.18963294
Fe       7.31773000       7.39473000       4.73130000      -1.41907300       3.06948200       1.38572900      -1.43829948       3.06276839       1.35594494
B        1.63947000       5.44017000       2.85377000      -1.37965300       1.67099600      -0.34434500      -1.49069045       1.77889033      -0.62040334
B        3.47444000       1.29905000       1.69513000      -6.04542900      -7.46227000      -1.52467000      -5.89283089      -7.23017586      -1.17285201
B        2.31673000       1.42955000       3.77944000      -1.85652800      -2.14982900       3.21956500      -1.74901469      -1.98730611       3.47204917
B        3.17088000       0.01260000       8.16689000      -2.14308300      -0.12737100      -3.63430700      -2.02259849       0.10585981      -3.58739530
B        2.48887000       2.23189000       2.44876000      -1.30373000       3.96631200      -0.94871100      -0.89059749       3.86714822      -1.28089451
B        3.55016000       3.21990000       0.17024000       2.13469500      -3.52588700       0.23974700       2.16846359      -3.43815931       0.27000804
B        3.12966000       3.07291000       4.24572000      -6.99085300       0.34377600      -0.16579100      -7.15722484       0.11792436      -0.24726963
B        2.38358000       5.95301000       6.34325000       2.25901800      -8.76611800      -6.31465800       2.21609035      -9.21358187      -6.56440937
B        4.46260000       2.62992000       4.23823000       7.08507900      -1.75449200       0.40993300       7.22143168      -1.78634342       0.45438244
B        7.51183000       3.59374000       3.85724000       1.49621300      -1.20378300       3.39561400       1.52466298      -1.10132280       3.26442830
Si       0.50050000       1.66927000       5.10425000      -1.02554400      -2.67263500       2.61432900      -0.81867996      -2.91714696       2.55578520
Si       0.41923000       4.50138000       8.15701000       0.82744200      -0.47721100      -2.57541600       1.06029173      -0.43821492      -2.80985474
Si       2.90131000       4.25049000       1.93860000       2.71957100       0.04497600      -0.88170100       2.91602540      -0.03785850      -1.09858264
Si       3.74353000       6.85388000       5.19884000      -1.20766000       1.80214700      -2.20114300      -1.07998833       2.01225324      -2.18064561
Si       3.54209000       6.47938000       8.21357000      -0.45014500      -1.75854100       4.24377300      -0.55042976      -2.00697759       4.44823387
Si       4.55252000       1.74669000       6.40118000       0.28733400       0.20348600      -1.69136000       0.27844929       0.17450756      -1.67737653
Si       5.87020000       3.30923000       5.41310000       1.93974000       0.55942400      -1.14043100       1.57716397       0.74035690      -1.11461203
Si       6.68392000       0.09389000       2.07850000      -2.78148600      -1.30329400       2.70552900      -2.47706088      -1.22932389       2.83260251
Si       7.30980000       7.36953000       0.08595000       4.18267400      -0.22507900      -1.67891000       4.12565096      -0.51978365      -1.68129453
Si       8.41387000       7.50606000       2.97540000       5.08859000       1.78741200      -0.88875800       5.04019090       1.98465485      -0.90872943
54
Lattice="8.579999685 0.0 0.0 0.0 8.579999685 0.0 0.0 0.0 8.5799996" Properties=species:S:1:pos:R:3:REF_forces:R:3:MACE_forces:R:3 config_type=Fe34B10Si10 REF_energy=-359.84864784 MACE_energy=-360.31908854380566 pbc="T T T"
Fe       0.39531000       2.37288000       0.87042000       3.27925500       2.43832800      -1.60261100       3.21074358       2.66348061      -1.77669414
Fe       0.75383000       1.65209000       3.11094000       1.30783500      -0.34615400      -0.09267000       1.28094311      -0.82516157       0.16857081
Fe       1.33201000       3.79282000       7.26231000      -2.40668100      -1.18131200       0.32245500      -2.51762622      -1.07342018       0.21944136
Fe       0.64436000       4.41396000       2.97573000       2.42004200      -2.26182600       0.38963900       2.48080474      -2.08808700       0.24201019
Fe       0.14751000       6.42079000       3.51005000      -3.07002100       1.32407200      -2.30638400      -3.11651410       1.35442552      -2.48838416