54
Lattice="8.579999685 0.0 0.0 0.0 8.579999685 0.0 0.0 0.0 8.5799996" Properties=species:S:1:pos:R:3:REF_forces:R:3:MACE_forces:R:3 config_type=Fe34B10Si10 REF_energy=-352.89092233 MACE_energy=-353.2991517042557 pbc="T T T"
Fe       1.46495000       0.71583000       1.12880000       3.73230100      -3.41607500      -3.76209700       3.67824974      -3.44138590      -3.56003650
Fe       0.56244000       2.07917000       1.96452000      -3.31290700       4.06628900       2.54508600      -3.34455542       4.06180684       2.35379408
Fe       0.86636000       2.12990000       5.00906000     -10.85567700      -2.87102900      12.20968700     -10.88369270      -2.94071326      12.20157276
Fe       0.24697000       2.61233000       7.83061000      -0.37811800      -2.03816900      -0.08744800      -0.36537954      -2.07188120       0.09693896
Fe       0.35437000       4.66395000       8.16447000      -1.30300600       1.62250000       0.84662400      -1.36344498       1.75331313       0.79564522
Fe       0.83543000       8.00840000       3.01492000       5.54921000      -2.55787300       0.52513800       5.59130959      -2.64490494       0.45966488
Fe       2.03952000       7.84431000       6.63062000      -4.28706100       1.82495200      -1.68802900      -4.05915542       2.03805450      -1.71068676
Fe       3.34318000       0.11090000       2.96052000      -0.46571400      -0.35056300       0.37864800      -0.49191975      -0.17449182       0.46114932
Fe       3.26317000       2.11539000       1.48699000      -3.47884800      -0.03222100       0.61542300      -3.29704990      -0.26158750       0.24472379
Fe       4.14313000       2.75755000       3.31065000      -0.71378000      -2.73118300       1.93004800      -0.69877915      -2.43788999       1.87521353
Fe       2.55051000       2.67374000       7.19710000      -2.55215900      -0.93589000       1.77261600      -2.29157270      -1.02785641       1.69835034
Fe       3.61327000       2.86500000       5.46497000       1.55763200       0.20514300      -0.56676300       1.45815370       0.30722151      -0.28345613
Fe       2.62400000       4.72550000       1.39174000      -1.08585200      -1.19598700       0.59645400      -1.34460620      -0.95987236       0.68256193
Fe       2.20317000       5.21693000       3.87451000      -3.92870900      -4.38103900      -4.92199500      -3.87432267      -4.31282013      -5.02423481
Fe       3.93082000       4.37819000       8.08226000       1.07616800       0.44807800      -0.99700400       0.97520737       0.24590784      -1.01670575
Fe       2.44961000       7.01753000       1.08943000       0.32119000      -1.55635000       3.27006500       0.44293835      -1.61509085       3.34845683
Fe       3.02500000       6.15780000       5.08193000      -1.08486800       1.64126100       3.95415400      -0.36995251       1.64734424       3.97229646
Fe       5.77712000       0.44616000       0.16142000      -2.43333700       0.07175000       4.13474700      -2.41756790       0.42101934       4.17155576
Fe       5.66964000       0.14892000       2.95259000      -3.67617900       1.90971100       0.12919700      -3.69737831       1.65821265       0.30342668
Fe       5.39484000       2.66317000       1.55162000       4.08183700      -3.39937100       3.88213200       3.98233133      -3.76145124       4.12828737
Fe       5.91309000       3.40423000       8.31953000       8.90196200       5.48305700      -2.72562400       8.70906563       5.42754945      -2.74488177
Fe       4.96126000       4.63305000       3.41410000      -3.60269200      -2.00302700       2.25051900      -3.88529439      -2.33081778       2.38890896
Fe       5.11347000       6.81217000       1.78872000      -0.87770500       0.06714300      -1.61156800      -0.71454990       0.12170934      -1.62543574
Fe       5.00950000       6.45991000       8.24507000      -2.30619500      -0.19808200      -1.52355700      -2.19876659      -0.03064071      -1.73115349
Fe       4.64263000       7.71190000       5.75084000       2.50156800       4.23919200      -1.55456800       2.55665615       4.26865922      -1.60330060
Fe       7.32285000       0.33022000       5.03535000      -0.99210900      -0.59745100       4.73628300      -0.98787789      -0.36158961       4.71058794
Fe       6.75330000       1.32958000       7.05071000       0.53851300       2.01290400       0.36400700       0.48805939       1.86910552       0.32435117
Fe       6.82686000       2.53028000       3.66692000      -0.08907100      -0.12987400      -0.26318300       0.03858790      -0.19756191      -0.22376381
Fe       6.83617000       5.56618000       0.59386000       1.74434500       1.47371700      -3.32847200       1.78924631       1.77961314      -3.48341201
Fe       8.27091000       4.29855000       2.87718000       3.23308900       0.33980500       1.37352500       3.09449484       0.18348398       1.33175943
Fe       6.58774000       4.90718000       4.97515000      -1.87594500       0.58060600      -0.05143700      -2.08139429       0.58012258      -0.53525386
Fe       6.86773000       6.79187000       3.27473000       1.52763600      -2.76254700       0.67579100       1.46855382      -2.45233865       0.36241373
Fe       8.09083000       8.29691000       0.84396000      -4.18921500      -1.95965200       9.56442300      -4.21842631      -2.25663725       9.62842405
Fe       6.62133000       7.67903000       7.47205000      -3.65417600       1.51975600      -3.32990400      -3.97388330       1.31048654      -3.46671929
B        3.45077000       6.81738000       6.75435000       2.04131500      -2.79808300       3.80923700       1.95727603      -2.85560811       3.92080232
B        4.67436000       1.10514000       4.73414000       0.75036200       0.95391600      -0.52852700       0.80096111       0.92935677      -0.42478333
B        6.18153000       2.20088000       5.47737000      -4.49435700      -3.20609500      -2.27763700      -4.63609567      -3.16046944      -2.43662091
B        5.08133000       4.10197000       6.35983000       0.35152900       0.25548900      -0.65354500       0.49645331       0.31648940      -0.58292841
B        4.48663000       4.29393000       1.40792000      -0.27448100       1.04603100       0.21283300      -0.22879532       1.21768464       0.22836591
B        4.96286000       5.88068000       6.14703000       0.60492000      -1.85032800       0.29314600       0.47112651      -1.88027008       0.12890261
B        8.17242000       5.65216000       5.55863000       1.00443800       0.65677900      -0.69824300       1.05140969       0.73974735      -0.23656856
B        7.98743000       6.92663000       6.60530000       5.86774900       2.58695800      -4.05103700       5.76549753       2.29383037      -3.61199846
B        7.10769000       5.72812000       6.91109000      -2.33709700      -3.34606800       1.34633400      -2.12308017      -3.40393689       1.53393130
B        7.81665000       6.81498000       8.33858000       5.04350100      -2.41043400       0.97359300       5.01779474      -2.59639607       0.52828889
Si       0.06983000       0.14925000       7.74742000       4.12649000       2.60901100      -8.87608100       3.98169053       2.59528533      -8.79901212
Si       1.93337000       2.41223000       3.74634000      10.14534600       2.98113100     -12.18526000      10.22965316       3.05274201     -12.01084447
Si       0.75978000       6.02813000       1.69309000      -4.13401100      -0.74920300       1.02787300      -4.13403065      -0.85819606       0.96882946
Si       2.22023000       5.10313000       7.16329000      -1.58663400       1.19675500      -1.89967800      -1.65947819       1.16693137      -1.85335065
Si       3.27754000       8.17117000       8.35443000       4.04667900       4.58101600      -2.24829100       3.92734006       4.53390745      -2.38400030
Si       4.48145000       2.18337000       8.34202000      -5.72220500      -5.96162700      -4.99603400      -5.45688025      -5.92019306      -5.14527337
Si       6.36439000       4.54151000       2.12641000       2.28764700      -2.33178900       1.39384200       2.55094051      -2.14273214       1.28666314
Si       4.52267000       6.51460000       3.75633000       0.42177200       5.22743800       1.25328700       0.12299574       5.30218987       1.34114220
Si       7.68278000       0.22257000       3.11016000      -0.17295300       4.89916800      -3.86478000      -0.23955186       4.84959837      -3.93547328
Si       7.35363000       3.38410000       6.13231000       4.40786200       1.27045000       2.62604800       4.39148888       1.42596059       2.95288538
54
Lattice="8.579999685 0.0 0.0 0.0 8.579999685 0.0 0.0 0.0 8.5799996" Properties=species:S:1:pos:R:3:REF_forces:R:3:MACE_forces:R:3 config_type=Fe34B10Si10 REF_energy=-354.71875992 MACE_energy=-355.3979777407189 pbc="T T T"
Fe       0.43313000       1.19321000       2.96848000       1.47291300       2.99028000       0.61180900       1.45145264       2.89387682       0.36588514
Fe       0.91365000       1.12516000       8.09995000       2.76260400      -2.00335600       1.20968300       2.38612835      -1.88151784       1.06054085
Fe       1.17142000       2.67870000       5.23446000      -1.90323000       6.04651700       0.58026800      -1.70201468       6.14743397       0.37146006
Fe       0.60772000       3.85484000       0.87278000       2.66909500       4.89444800       4.53699300       2.62051724       5.08842171       4.14156462
Fe       1.41565000       3.44858000       3.01161000      -0.29549500       2.03729500      -0.74017400      -0.01517759       1.92406042      -0.65008186
Fe       0.04226000       2.91249000       8.09734000      -3.39897200      -2.84207300      -2.69442200      -2.78561916      -2.99857503      -2.43634805
Fe       1.33282000       7.09057000       5.22634000      -0.45239700      -1.35392500       0.92503500      -0.23023524      -1.48520077       0.95316376
Fe       2.06045000       7.92051000       0.98063000      -3.11321000      -0.30108300      -2.49280600      -3.25302441      -0.42729974      -2.47400705
Fe       2.03627000       8.24295000       3.50701000      -1.42216600       4.38122900       0.88517600      -1.50711607       4.09890217       0.63694417
Fe       0.01253000       8.02686000       7.00667000       2.58679700       0.98610200     -11.80201700       2.46218699       0.89026730     -11.90717774
Fe       3.00353000       0.57289000       6.13981000      -1.03922300       0.18357300       0.93137300      -0.76940681       0.13790478       0.98924989
Fe       3.69949000       2.65196000       7.51811000       2.76433000      -4.34399200      -3.80269000       2.60638047      -4.11507006      -3.67344412
Fe       2.94478000       6.44154000       3.03987000       7.21319500      -3.66655800      -1.17614100       6.98284066      -3.45729487      -0.99520230
Fe       2.94309000       5.75189000       6.64956000      -6.24071800      -0.74678300       3.86021800      -6.42307900      -0.63950273       3.98025569
Fe       3.71160000       8.39321000       1.86324000       2.24845700      -0.43546600       0.28887200       2.32623301      -0.11048195       0.67952388
Fe       4.07810000       8.43915000       4.32840000       2.88035800       1.28304800      -0.49181300       2.84434361       1.32516550      -0.76696879
Fe       5.57499000       0.73262000       6.31633000      -3.12774100      -1.68249800      -0.98058200      -2.79283449      -1.71581866      -0.92072275
Fe       4.70712000       1.94493000       1.65492000      -2.04675700       4.97917500      -3.67899600      -2.14452824       4.79023766      -3.42621820
Fe       4.73401000       4.18392000       1.24748000       0.71501700       1.80608500      -0.06999200       0.71821885       1.98453581      -0.12104157
Fe       4.56687000       4.22266000       4.39618000       0.73801700       3.32591500      -2.10569900       0.51911503       3.16103276      -2.16129037
Fe       4.51224000       4.61167000       7.05684000       2.53211900      -0.41024200       0.53825400       2.95643450      -0.74845856       0.48224662
Fe       6.32808000       6.81945000       4.24288000      -3.20445400      -0.33519400      -1.28892300      -2.79946987      -0.23613762      -1.07313796
Fe       6.22240000       7.17309000       0.16230000      -3.30904600      -2.75215800       1.90373500      -3.51659426      -2.96615834       2.04452127
Fe       4.54224000       7.44382000       7.03838000       0.17895600      -5.02037800      -8.74618400       0.30135789      -5.26446263      -8.85631299
Fe       4.73272000       8.55832000       8.35561000      -0.10588400       8.96287400       6.54083400      -0.29314726       9.34709491       6.18462800
Fe       7.67285000       2.82429000       2.17742000      -2.12886900      -0.76272600      -2.06587500      -2.10948363      -0.83371833      -1.98559702
Fe       6.74071000       1.77406000       4.33655000       0.47479500       0.50025500      -0.42349800       0.08048284       0.41240544      -0.45575617
Fe       7.16362000       1.61896000       6.68131000       5.11373900       1.83737400       0.70818800       4.70591965       1.63266283       0.63648350
Fe       6.73653000       4.13840000       7.84564000       0.19062300       0.32905600       3.59274800       0.16701147       0.47596862       3.61832756
Fe       6.61248000       5.35948000       2.44590000       0.96755600      -0.77403900      -0.47053600       0.84781185      -0.66362745      -0.46321737
Fe       8.39074000       4.95678000       4.82580000       0.50677700       3.21370700       1.22596300       0.60374272       3.13786818       1.08578013
Fe       6.62275000       6.29700000       6.29237000       0.91106900      -0.58785400       1.74696000       0.82587850      -0.48338851       1.60223582
Fe       8.00875000       8.14674000       2.12563000      -1.25903800      -1.94608200      -3.37077000      -0.86220662      -1.93327562      -3.41886390
Fe       7.96861000       8.10559000       4.08816000       1.24434400       0.03207600       4.40361200       0.71708622       0.04795034       4.54933038
B        3.14587000       1.61638000       2.59818000      -3.96044800      -1.57388800      -2.24367700      -3.98830149      -1.49518688      -2.03484049
B        4.07212000       1.93087000       3.78701000       0.55534200       0.12762300      -3.25123200       0.41141594       0.17758080      -3.19251293
B        2.24412000       1.90783000       4.05913000      -1.80380000      -9.70850100      -5.48536600      -1.86602312      -9.99742938      -5.62186784
B        2.90130000       3.06657000       4.45062000       2.48509300       7.60479000      -1.50334300       2.84886616       7.25837132      -1.51608334
B        2.82587000       3.80138000       5.80651000       0.21675600       2.27927400       3.92227300       0.28774531       2.14766214       3.90252935
B        2.60929000       5.04297000       1.66311000       0.12617300      -0.77075900      -0.46531300      -0.03876099      -0.80404216      -0.44133620
B        2.47198000       4.95014000       4.32601000      -0.76752800      -1.31946700       0.35153300      -0.81011648      -1.22217617       0.40614901
B        2.73354000       7.81887000       7.66829000      -1.47869400      -0.15377200       0.00458000      -1.52318768      -0.17099301       0.21685875
B        5.68071000       2.28134000       7.79544000      -0.95924500       0.41857400       1.11780500      -0.96058544       0.36868433       1.06168250
B        7.77536000       3.70665000       3.76574000      -0.44877700      -1.48394500      -0.38974400      -0.54781494      -1.40139387      -0.06829286
Si       0.79518000       0.92195000       5.77957000      -1.66645900      -4.94136200      -1.10925300      -1.61769503      -5.03924049      -0.95280499
Si       0.88055000       4.20706000       6.73551000       1.15626000       3.58432200      -0.32349000       1.11824487       3.71293821      -0.23343010
Si       1.15025000       6.44729000       2.43826000      -7.77651300      -1.83655100      -1.54918700      -7.83956888      -1.70649096      -1.70632014
Si       2.82820000       3.29548000       0.50208000      -4.05499500       1.58525200       5.32597100      -4.08290349       1.42369887       5.24435700
Si       4.14031000       6.38272000       0.30005000      -2.16949800      -2.44928300       2.57761000      -2.28524022      -2.41786960       2.49126984
Si       3.68345000       6.43010000       5.01209000       3.98893100       0.98565200      -2.13453700       3.85013221       1.16518489      -2.13481699
Si       5.73751000       0.59059000       2.53265000       5.08228400      -4.90021500       2.23852200       5.10153002      -4.87171154       2.49645497
Si       4.51163000       2.47994000       5.36819000       2.60737700      -2.86786400       7.12589500       2.78107705      -2.62514893       7.06243634
Si       6.43436000       3.75222000       5.86206000       1.38008400       0.66155200      -3.64612400       1.52108644       0.73786535      -3.74579201
Si       8.06432000       7.52318000       8.55473000       2.36409700      -3.06603600      11.34847700       2.72089460      -2.77610344      11.16960700
18
Lattice="6.5 0.0 0.0 0.0 6.5 0.0 0.0 0.0 6.5" Properties=species:S:1:pos:R:3:REF_forces:R:3:MACE_forces:R:3 config_type=Fe12B3Si3 REF_energy=-113.87843945 MACE_energy=-113.07644612618648 pbc="T T T"
Fe       5.40234000       5.43492000       1.53729000      -1.39532100       2.04028400       0.71142300      -1.01408194       1.85849375       0.69909903
Fe       2.09750000       2.10361000       0.54730000       2.35673700      -0.33103000       1.27254800       2.53239622      -0.08011340       1.27580826
Fe       2.84360000       1.73250000       3.81271000       2.28004000      -1.18251600      -0.27344700       2.20339321      -0.97551497      -0.21023250
Fe       0.77541000       4.93717000       1.04317000       1.56096300      -3.83372900       1.76362000       1.27326037      -3.42100236       1.55448691
Fe       0.07665000       3.70431000       3.74351000      -0.75952900      -0.39175400      -2.23189700      -1.15613723      -0.48054724      -2.26779311
Fe       4.77171000       3.58949000       4.78220000      -1.99219600      -4.62409700       0.48420500      -1.66632755      -4.50882848       0.38756988
Fe       4.12430000       1.49867000       1.46476000       0.29771700      -2.38794700       0.28396300       0.28801499      -2.65224882       0.10411615
Fe       0.95387000       5.17746000       5.28728000      -0.57085000      -0.50160400      -1.80733600      -0.93908840      -0.68823083      -1.34461873
Fe       1.93602000       3.09888000       2.36598000      -0.08855100       0.43128300      -0.27209000      -0.21574397       0.51046913      -0.55724889
Fe       5.69037000       1.28357000       4.20026000      -0.40866000      -0.49067900       0.18976600      -0.80313432      -0.30258524       0.24516478
Fe       1.94321000       2.86141000       5.39871000      -0.55906500       0.73218900      -1.80086600      -0.48771732       0.68757991      -1.91900788
Fe       4.33122000       5.38124000       5.25469000      -0.73272900       4.56545400       1.52017900      -0.58032822       4.34107727       1.54265264
B        0.37598000       1.64060000       1.21420000      -3.21263000       2.85095800       0.76078000      -3.02216191       2.71367133       0.86221421
B        1.88110000       4.04794000       3.96741000       2.48956600       2.45119300      -0.32261600       2.67713565       2.39326070      -0.28722921
B        3.63878000       0.94242000       5.41981000      -0.01444500       0.67937600       0.95779200       0.14098399       0.82192319       1.10672413
Si       1.19380000       0.26963000       0.19686000       0.54051800       0.24528300      -1.93219100       0.64856822      -0.01982577      -1.86102536
Si       4.57825000       3.47658000       1.16117000       0.15934200       1.26766700      -0.81102600       0.18600528       1.47552477      -0.77660253
Si       1.09558000       0.76720000       2.75124000       0.04909300      -1.52033200       1.50719200      -0.06503706      -1.67310295       1.44592223
54
Lattice="8.579999685 0.0 0.0 0.0 8.579999685 0.0 0.0 0.0 8.5799996" Properties=species:S:1:pos:R:3:REF_forces:R:3:MACE_forces:R:3 config_type=Fe34B10Si10 REF_energy=-356.0869274 MACE_energy=-356.9678772929042 pbc="T T T"
Fe       0.92877000       1.08311000       2.12831000      -0.53214900      -1.15432400       0.53007800      -0.70514124      -1.20222835       0.41030497
Fe       1.12794000       0.45096000       7.37327000      -2.86345100       2.18226700       1.45805300      -2.83445851       1.97242461       1.45157222
Fe       0.91289000       3.61082000       1.96264000      -1.66570100       0.50807500      -4.76654600      -1.69263341       0.35151301      -4.78160422
Fe       0.97242000       3.25012000       3.83975000      -0.85629000      -1.23507100      -0.91491200      -1.06891459      -1.21883060      -0.22358307
Fe       1.43574000       3.84332000       5.84621000      -1.94378300      -0.72872400       4.94145300      -2.07212542      -0.59925365       4.67300267
Fe       0.45897000       5.99881000       1.32384000       1.86679900       1.45939200      -0.33976700       1.63256056       1.54411061      -0.16173558
Fe       0.05714000       6.25044000       6.01250000       0.66851500      -0.88142700       1.67028200       0.71540324      -0.77066940       1.73859538
Fe       1.87526000       7.05991000       7.27744000      -5.90957000       6.81146600       5.95768600      -5.75833768       7.21795753       5.97310600
Fe       4.21220000       0.80536000       3.81626000       0.44958900      -1.97725700       0.54591300       0.50795607      -1.90420585       0.44312296
Fe       2.64196000       0.75311000       5.88605000       0.80305000      -0.92688600      -1.50973400       0.53577861      -1.05043160      -1.57449594
Fe       2.51735000       4.27963000       7.86001000      -0.17185400       2.88247300       0.00075600       0.00122655       2.96120312       0.20187591
Fe       2.46175000       4.76211000       4.38544000       2.27245000       6.36429500      -0.60000700       2.17958731       6.32071722      -0.66070877
Fe       3.99132000       4.46692000       6.09268000      -0.21521200      -1.96607600      -0.25853400      -0.18094485      -2.23275054      -0.19649196
Fe       4.03283000       6.20484000       2.50717000       0.32509400      -1.83048700       1.07686200       0.41778485      -1.76145232       1.09830533
Fe       2.62183000       8.12097000       1.25125000      -5.45108600      -1.04608100      -0.88869000      -5.50844775      -1.10820366      -0.62819449
Fe       2.34208000       7.49949000       3.33705000      -1.45221900       0.10179900       1.96325000      -1.24324536       0.18846267       1.62516845
Fe       4.67554000       0.98699000       8.35162000       1.97529500       0.95938300       0.07305200       1.66875265       0.84202110       0.34924006
Fe       4.68615000       2.28426000       1.60336000       6.03713100       4.39249100       1.56082500       6.23580051       4.33443876       1.16645840
Fe       4.95897000       4.28949000       0.91503000       1.24258400       3.77490300      -1.07876200       0.77529449       3.53791174      -1.25048657
Fe       5.62605000       3.84953000       3.25301000      -4.56775200       3.43217100       2.09526400      -4.54428777       3.53609623       1.89818388
Fe       5.63153000       5.70233000       4.67966000       0.04558900       0.36352900      -0.74034800       0.01995233      -0.05303580      -0.59850734
Fe       5.00954000       6.14620000       6.89198000       4.51113600      -2.60361300       1.43664400       4.56945385      -2.37837827       1.42484529
Fe       5.34723000       7.32984000       0.56425000       3.41130600      -7.55812200      -7.44238600       3.42090459      -7.00667537      -7.21179628
Fe       4.57141000       8.20633000       1.67615000      -2.51651100       6.57056000       9.11650700      -2.67081311       6.06951049       8.66268516
Fe       5.67084000       7.83697000       6.02451000      -0.02983000       3.57151200       0.33120700      -0.07060811       3.63086709       0.35944575
Fe       7.65837000       1.05332000       0.64336000       1.95813700       2.93603900      -3.62028800       1.88856608       2.94453441      -3.53945700
Fe       7.23579000       1.49494000       3.62009000       0.88838800      -1.50203300       3.00240400       0.95548956      -1.52139262       3.06727264
Fe       6.96409000       1.59543000       6.70415000       0.40175100      -2.57633900      -0.54943900       0.51833763      -2.54100610      -0.55283097
Fe       6.97946000       3.05325000       2.27831000       3.01329100      -2.85779700      -7.80747400       2.45233667      -2.94354099      -7.25107865
Fe       7.05854000       3.62734000       7.13255000       0.94483300       2.42104600       2.56329500       1.03249279       2.47304918       2.49444918
Fe       7.47490000       4.49325000       0.92243000      -3.13561000       0.06366500       0.11142200      -2.89800470       0.45552932      -0.22688266
Fe       7.76499000       5.40883000       4.05655000       3.42051700      -2.49950500       1.10150300       3.49553760      -2.65474382       1.11219203
Fe       6.91686000       6.16423000       2.38917000      -4.34160700       0.52717700      -3.24358900      -4.31661935       0.60388474      -3.19663759
Fe       7.31773000       7.39473000       4.73130000      -1.41907300       3.06948200       1.38572900      -1.46042964       3.02898465       1.38236686
B        1.63947000       5.44017000       2.85377000      -1.37965300       1.67099600      -0.34434500      -1.51150934       1.78005859      -0.60828980
B        3.47444000       1.29905000       1.69513000      -6.04542900      -7.46227000      -1.52467000      -5.89182738      -7.19152092      -1.14521656
B        2.31673000       1.42955000       3.77944000      -1.85652800      -2.14982900       3.21956500      -1.72662493      -1.99017381       3.45438423
B        3.17088000       0.01260000       8.16689000      -2.14308300      -0.12737100      -3.63430700      -1.99701550       0.11022076      -3.58070954
B        2.48887000       2.23189000       2.44876000      -1.30373000       3.96631200      -0.94871100      -0.89753692       3.84819840      -1.29106057
B        3.55016000       3.21990000       0.17024000       2.13469500      -3.52588700       0.23974700       2.16127509      -3.44005946       0.30232394
B        3.12966000       3.07291000       4.24572000      -6.99085300       0.34377600      -0.16579100      -7.13733540       0.13532310      -0.20005685
B        2.38358000       5.95301000       6.34325000       2.25901800      -8.76611800      -6.31465800       2.18573989      -9.22842244      -6.57938213
B        4.46260000       2.62992000       4.23823000       7.08507900      -1.75449200       0.40993300       7.20632642      -1.82823040       0.45580960
B        7.51183000       3.59374000       3.85724000       1.49621300      -1.20378300       3.39561400       1.53880067      -1.09458104       3.24341852
Si       0.50050000       1.66927000       5.10425000      -1.02554400      -2.67263500       2.61432900      -0.79943255      -2.91180963       2.59269275
Si       0.41923000       4.50138000       8.15701000       0.82744200      -0.47721100      -2.57541600       1.06224252      -0.40978573      -2.83048611
Si       2.90131000       4.25049000       1.93860000       2.71957100       0.04497600      -0.88170100       2.90358058      -0.02539338      -1.08315170
Si       3.74353000       6.85388000       5.19884000      -1.20766000       1.80214700      -2.20114300      -1.07051773       2.04559954      -2.15647526
Si       3.54209000       6.47938000       8.21357000      -0.45014500      -1.75854100       4.24377300      -0.54209094      -2.00108370       4.44676890
Si       4.55252000       1.74669000       6.40118000       0.28733400       0.20348600      -1.69136000       0.26120692       0.15313351      -1.64888849
Si       5.87020000       3.30923000       5.41310000       1.93974000       0.55942400      -1.14043100       1.57198935       0.76706434      -1.08740893
Si       6.68392000       0.09389000       2.07850000      -2.78148600      -1.30329400       2.70552900      -2.47081277      -1.24065331       2.82150069
Si       7.30980000       7.36953000       0.08595000       4.18267400      -0.22507900      -1.67891000       4.12049586      -0.51779071      -1.67660382
Si       8.41387000       7.50606000       2.97540000       5.08859000       1.78741200      -0.88875800       5.03484174       1.97348875      -0.90687090
54
Lattice="8.579999685 0.0 0.0 0.0 8.579999685 0.0 0.0 0.0 8.5799996" Properties=species:S:1:pos:R:3:REF_forces:R:3:MACE_forces:R:3 config_type=Fe34B10Si10 REF_energy=-359.84864784 MACE_energy=-360.3091784688022 pbc="T T T"
Fe       0.39531000       2.37288000       0.87042000       3.27925500       2.43832800      -1.60261100       3.21478902       2.68763703      -1.77825614
Fe       0.75383000       1.65209000       3.11094000       1.30783500      -0.34615400      -0.09267000       1.28479159      -0.85576724       0.12841687
Fe       1.33201000       3.79282000       7.26231000      -2.40668100      -1.18131200       0.32245500      -2.54148787      -1.09259754       0.24017373
Fe       0.64436000       4.41396000       2.97573000       2.42004200      -2.26182600       0.38963900       2.48678710      -2.09755908       0.27012042
Fe       0.14751000       6.42079000       3.51005000      -3.07002100       1.32407200      -2.30638400      -3.10144221       1.32347813      -2.45204443