18
Lattice="6.5 0.0 0.0 0.0 6.5 0.0 0.0 0.0 6.5" Properties=species:S:1:pos:R:3:REF_forces:R:3:MACE_forces:R:3 config_type=Fe12B3Si3 REF_energy=-122.60259194 MACE_energy=-130.2225774602757 pbc="T T T"
Fe       5.09292000       4.71692000       1.17657000      -0.43533200      -0.51500600      -0.95471400      -0.16705718      -0.02629285      -0.53728622
Fe       5.77166000       0.42197000       5.05407000      -0.02893800      -0.71596500       0.04838100      -0.14418853      -1.10645680       0.89037594
Fe       5.13387000       2.35523000       3.84734000      -1.89765700      -0.10869600       1.91264400      -2.29741923       0.01903193       1.42314749
Fe       4.28586000       4.44305000       5.45001000       0.16330100      -0.45505100      -0.78988200       0.42392678      -0.29814799      -0.98760638
Fe       1.94340000       5.71942000       3.43498000      -0.80849200       0.79590200      -1.52941800      -0.99984210       1.04352097      -2.09205119
Fe       2.23403000       5.41245000       5.55948000       0.02203500       1.10579100       1.46023700      -0.29161450       0.54754500       2.10661317
Fe       6.31948000       3.13845000       2.34683000       1.54883600       0.55665100      -0.85220000       1.56987663       1.28879481      -0.82001235
Fe       4.04920000       1.84413000       0.54644000       0.54070000       0.26521300       0.10478400       0.69729802       0.03999514      -0.26779067
Fe       6.03875000       2.85985000       6.10045000       0.55348700      -0.00632300       0.45841600       0.62018554      -0.11405466       0.49038634
Fe       0.58685000       1.29742000       1.31584000      -2.59691900      -1.19344800       0.74087100      -3.26896342      -1.80386666       0.06014308
Fe       4.91298000       0.15320000       2.42984000      -0.06700500       1.23581300      -0.27632200       0.40524316       1.23307541      -0.77456076
Fe       1.93111000       3.24513000       0.71062000       0.70722800       0.46984000      -0.28427000       0.28095121       1.08507265      -0.10431062
B        2.37195000       1.25222000       1.40537000       1.65160600      -0.35926700       0.26079300       2.42961675      -0.37680591       0.89371582
B        0.08066000       0.99775000       3.29118000       0.16566700      -0.31648400      -0.67714100       0.89525174       0.06901251      -0.23047154
B        3.93898000       5.93711000       3.88036000      -0.16859400      -0.37277700       1.63812600      -0.53197017      -0.65066733       1.85468696
Si       1.06372000       3.69612000       4.51440000      -0.53709400      -0.15329500      -0.11394200      -0.08987239      -0.53655822      -0.57163146
Si       1.71394000       1.26695000       5.84256000       0.03292600      -0.14907500      -1.01285500       0.26473626       0.04492797      -1.42158605
Si       3.33060000       3.91426000       2.72453000       1.15424600      -0.08382500      -0.13350900       0.20384144      -0.45812597       0.08823845
18
Lattice="6.5 0.0 0.0 0.0 6.5 0.0 0.0 0.0 6.5" Properties=species:S:1:pos:R:3:REF_forces:R:3:MACE_forces:R:3 config_type=Fe12B3Si3 REF_energy=-121.31244081 MACE_energy=-130.22976575731738 pbc="T T T"
Fe       1.54567000       5.09347000       2.96054000      -0.05755400       0.22926400       0.19630700       0.06279866       0.13893859       0.17363146
Fe       5.37031000       4.33464000       3.33914000      -0.58258500       0.74000300       1.13110700      -0.82764421       0.44035863       0.63884530
Fe       3.42840000       1.36213000       4.29281000      -1.01656700       0.10268700       0.03844400      -0.68875841       0.19797070       0.51433135
Fe       3.57265000       3.88513000       0.65516000       0.30850200       1.33476100       1.08278900       0.82499808       1.40674932       1.00258852
Fe       1.41689000       0.59785000       1.78345000       0.74253900       0.82871700       0.20224800       0.83613109       0.39294658       0.44768502
Fe       0.97121000       3.19177000       4.49857000      -0.23778700       0.31663600       0.49523500      -0.41569794       0.52891779       0.61839512
Fe       0.10960000       3.90804000       1.55392000       0.39793300      -0.41835000      -0.70952800       0.14369375      -0.36139199      -0.58581402
Fe       3.14656000       3.96526000       4.20821000       0.80956500      -0.29266500       1.03843300       1.00052202      -0.26205602       0.77695669
Fe       5.48304000       3.37518000       6.03157000       0.56050000      -0.52763000      -1.40935100       0.34339855      -0.64526152      -1.13865448
Fe       3.88217000       0.69368000       1.82654000      -1.75284600       0.65177800      -1.13448000      -1.40412957       0.22706440      -1.60138167
Fe       1.77093000       2.74360000       0.38456000      -0.62318100      -1.15549800      -0.16030100      -0.99881614      -1.15065774      -0.27139909
Fe       6.43892000       5.63221000       5.07465000      -0.92523200      -0.35829100      -0.46582300      -0.40172986      -0.04835458       0.11256073
B        4.32987000       5.76823000       4.64532000      -0.20450600      -0.71291100      -0.34975500      -0.21544924      -0.24376078       0.34963578
B        4.86401000       0.31075000       3.35677000       1.37279600      -1.05687500       1.71697400       1.33300311      -1.04021783       1.04569057
B        1.72795000       2.62743000       2.69252000       0.25169800      -0.16894100      -0.71378200       0.18067754       0.26510547      -0.50497609
Si       5.92922000       1.16658000       0.91137000       0.17077100       0.77306600      -0.40821800      -0.36379754       0.73334564      -0.86189555
Si       1.55137000       0.52682000       5.95862000       0.76711600       0.45167400      -0.21249400       0.85183991       0.03655445      -0.60825058
Si       0.23429000       1.22377000       3.73067000       0.01883900      -0.73742700      -0.33780600      -0.26103978      -0.61625112      -0.10794908
18
Lattice="6.5 0.0 0.0 0.0 6.5 0.0 0.0 0.0 6.5" Properties=species:S:1:pos:R:3:REF_forces:R:3:MACE_forces:R:3 config_type=Fe12B3Si3 REF_energy=-119.7015825 MACE_energy=-128.48665936805088 pbc="T T T"
Fe       0.61406000       3.48190000       4.00853000       0.05000800       0.69203900      -0.65899000       0.10617880       0.34001234      -0.38291167
Fe       4.97626000       0.76382000       4.44673000      -0.35037700       1.47026600       0.84275300      -0.34821002       1.47337609       0.69989234
Fe       3.34553000       4.74129000       4.52266000      -0.04235300       0.38767900      -0.51635200       0.03853370       1.16786542      -0.45764716
Fe       2.72320000       4.03412000       2.53731000       0.14210100      -0.10011400      -0.31343200       0.62960097       0.47564671      -0.40386486
Fe       0.83336000       4.50867000       1.52689000      -1.17306600       1.62258800       0.10072700      -1.34779737       1.65223141      -0.39189072
Fe       0.92240000       1.42661000       5.10358000       0.70633700       0.51501800       0.05106700       0.37844469       1.06547018      -0.28263774
Fe       5.37460000       5.19700000       3.85308000       1.71590800      -0.94477900      -1.05904100       1.86854678      -0.85848602      -1.18205572
Fe       1.59919000       5.65956000       5.19133000      -1.80142700       0.34157800       0.33855300      -1.84548201       0.26680953       0.70459309
Fe       1.42206000       0.28899000       2.84488000      -0.46217700      -0.05934400      -0.48497300      -0.76603400      -0.59300415      -1.13159061
Fe       0.14336000       0.29234000       0.36155000       0.19959000      -0.37895800       0.35421900       0.40475331      -0.24177467       0.37992667
Fe       4.01865000       3.23019000       5.76943000       0.89386800      -0.42884300       1.55421800       1.26739092      -0.80814502       1.68426722
Fe       5.37081000       1.08656000       2.03514000      -0.92791000      -0.01223000       0.80912400      -0.91225993      -0.24552962       0.68251974
B        2.67090000       1.02966000       4.10204000       1.31464700      -0.52838700       0.81909000       0.96655611      -0.26551613       0.41042523
B        3.04001000       2.23804000       1.93097000       0.69846800      -0.94741100       0.43315700       0.60211866      -1.37453082      -0.39339070
B        3.45335000       1.43986000       5.58522000      -0.99169000      -0.73456400      -1.02779300      -0.88365602      -1.18736558       0.68474456
Si       5.04048000       3.39294000       2.10200000      -0.29496400       0.38301900       0.21545600       0.16573426       0.55945792       0.06596326
Si       5.63077000       4.87350000       6.41151000      -0.48492700      -0.59127500      -1.23672100      -0.66968380      -0.77450899      -0.67625408
Si       0.92620000       2.28662000       1.33607000       0.80796400      -0.68628200      -0.22106200       0.34526496      -0.65200860      -0.01008885
18
Lattice="6.5 0.0 0.0 0.0 6.5 0.0 0.0 0.0 6.5" Properties=species:S:1:pos:R:3:REF_forces:R:3:MACE_forces:R:3 config_type=Fe12B3Si3 REF_energy=-121.85787139 MACE_energy=-130.6640034978997 pbc="T T T"
Fe       3.74522000       1.93951000       3.03104000       0.15344600      -1.30313800       0.57095700      -0.64525256      -0.84197751       0.65394195
Fe       5.13632000       4.25308000       0.92736000       1.61810900       1.29717800      -0.09026100       2.02502374       0.87812039       0.09682110
Fe       2.38772000       3.64647000       1.36253000       0.34718900       0.24437500       0.26687600      -0.10926456      -0.22580183       0.37954675
Fe       4.52682000       2.03507000       0.88629000       0.10309200      -0.28281500      -0.32066600       0.47319366      -0.34885721      -0.82334106
Fe       0.72889000       5.71397000       0.71694000       0.39426700      -0.05723500      -0.70851200      -0.09845507      -0.29592165      -0.62608892
Fe       1.28004000       2.60278000       3.63876000      -0.05139800      -0.26602100      -0.17015500       0.34947565       0.25327865      -0.59302704
Fe       4.25735000       4.17533000       2.99842000      -0.51788500      -0.00171000       1.38499700      -0.35146116       0.80461076       1.32851947
Fe       5.17853000       0.17226000       2.33142000       0.65502400      -0.75404400      -0.07820000       0.55866165      -1.03382518      -0.53978214
Fe       3.30921000       2.19924000       5.35160000       0.29955200      -0.43084800       0.01416400       0.50301402      -0.50439435      -0.10495592
Fe       5.15839000       5.82552000       4.66434000      -0.09919600       0.87520900       0.22737800       0.48469671       0.73597148       0.38604802
Fe       0.99579000       3.32661000       5.82380000      -0.58192300      -0.10817300       0.50157800      -0.61643418       0.09082499       1.02654342
Fe       3.66613000       4.36288000       5.83709000      -1.35170800       0.84645900      -0.30712200      -1.02084364       0.90225061      -0.78089759
B        2.84060000       0.39334000       4.32751000      -0.35193100      -0.06164300      -0.39291200       0.32690662       0.35398330      -0.21444982
B        1.64536000       1.24443000       5.37304000      -0.64125300       0.06658900       0.28190300      -1.41915430      -0.28249241       0.11052071
B        5.94501000       1.69280000       3.57914000      -0.18823400      -0.20229800      -0.92962600      -0.40550100      -0.27221372       0.03521234
Si       1.95275000       4.93141000       4.29137000       0.04269600       0.05062900      -0.61354000      -0.26688472       0.09149903      -0.58078904
Si       1.17675000       0.50357000       2.60680000      -0.03007500       0.17892800       0.39125200       0.21473654      -0.15022536       0.14838198
Si       3.01916000       0.15396000       0.36058000       0.20022900      -0.09144200      -0.02811200      -0.00245741      -0.15482998       0.09779582
18
Lattice="6.5 0.0 0.0 0.0 6.5 0.0 0.0 0.0 6.5" Properties=species:S:1:pos:R:3:REF_forces:R:3:MACE_forces:R:3 config_type=Fe12B3Si3 REF_energy=-123.17032223 MACE_energy=-131.0214787679723 pbc="T T T"
Fe       2.06128000       1.35192000       5.56271000       0.18198700      -0.16204600       0.32079200       0.37943091      -0.42739919       0.22466481
Fe       0.20628000       0.74352000       0.47533000      -0.01212900      -1.80057200       0.81247600      -0.45430430      -2.43196047       0.65473672
Fe       4.21352000       4.38008000       1.14975000       0.22760200      -0.36679400      -0.09969700       0.65502948      -0.90634097       0.01397859
Fe       2.54249000       3.63216000       4.72939000       1.19327500      -0.66455700       0.07221400       1.20493706      -0.56300685       0.18353337
Fe       3.83205000       5.53820000       4.79909000       0.51612300       1.20124600       0.12884600       0.43185675       1.34282871      -0.11790434
Fe       5.42994000       1.39640000       2.52309000      -0.42467600       2.12164400      -0.14102300       0.74665476       2.59680908       0.28775896
Fe       5.04777000       3.40995000       5.34287000      -0.21348800       0.67090800       0.05014900      -0.01289614       1.12829835      -0.08310048
Fe       4.02538000       0.24009000       0.60478000      -0.67052300       0.23330400      -0.82188900      -0.41253755       0.63267781      -1.51770138
Fe       5.70945000       1.27912000       5.05205000      -0.15485500      -0.64748300      -0.75514100      -0.21488889      -0.99113806      -1.08007729
Fe       1.92991000       4.99192000       1.74667000       0.17963600      -0.15990000       0.40814400      -0.42689730       0.22378943       0.78134092
Fe       1.43771000       1.03607000       3.08283000      -1.21763900       0.01257600       0.14875200      -1.27735514      -0.73354073       0.49600685
Fe       0.86801000       4.47220000       6.13084000      -0.41825400       0.29579200      -0.15826700      -0.89430535       0.51307792      -0.16992345
B        2.11019000       0.52917000       1.24201000       0.09094000       0.18445000      -0.68560600       0.07843804       0.02670644      -0.55437310
B        4.85706000       2.12229000       0.43616000       0.59367600      -0.04809400       0.32134000       0.47568813       0.09519384       0.33527757
B        4.77818000       6.22659000       2.28373000      -0.06851400      -1.72155000       0.50330900      -0.38379634      -3.06520449       0.87007944
Si       3.22130000       2.33163000       2.83281000       1.18133600       0.37223400      -0.18261100       0.85554203       0.94028807      -0.38197620
Si       0.66472000       2.69680000       1.28352000       0.35904800       1.34635600       0.36533200       0.63626244       1.68269076       0.63665094
Si       0.57749000       3.56144000       3.74467000      -1.34354500      -0.86751400      -0.28711800      -1.38685857      -0.06376966      -0.57897195
18
Lattice="6.5 0.0 0.0 0.0 6.5 0.0 0.0 0.0 6.5" Properties=species:S:1:pos:R:3:REF_forces:R:3:MACE_forces:R:3 config_type=Fe12B3Si3 REF_energy=-121.03497159 MACE_energy=-130.2232714546958 pbc="T T T"
Fe       1.44158000       5.30001000       3.73990000       0.80024600       0.97127900      -0.80130000       0.25634534       1.05911965      -0.91729119
Fe       4.76448000       5.46703000       0.81860000      -0.12557700      -0.35798900      -1.48527900       1.42277535      -0.61480188      -0.66253731
Fe       4.93607000       4.01866000       4.50215000      -0.53630200      -0.06755300       0.28519800      -0.46941929      -0.09845733       0.02276797
Fe       2.54967000       4.74564000       1.15826000      -0.30791600      -0.46889400      -0.15805100      -1.17802250      -0.22748417      -0.55092215
Fe       0.34169000       3.61061000       2.35881000      -0.53529500      -0.58811100       1.00699100      -0.48663074       0.03254169       0.81576113
Fe       2.35204000       1.58777000       2.07914000       0.57705800      -0.58459200       1.04343400       0.67533167      -0.93515976       0.65936561
Fe       0.62223000       1.04055000       5.16059000      -1.24617800      -0.24006500      -0.54335800      -1.20221187      -0.78538815      -0.06856499
Fe       2.51060000       2.14408000       4.43449000       0.07351100       1.18492700       0.27387000       0.26123542       1.41028096       0.09557266
Fe       0.54955000       4.27737000       5.47880000       1.11038600       0.55751700       0.11547900       0.95633416       0.74118950       0.33370620
Fe       3.71982000       5.75480000       3.16466000       0.38624700       0.77644400       0.53907400       0.43935724       1.03134621       0.39298660
Fe       1.21496000       2.60205000       0.49559000       0.91097100      -0.21628300      -1.40025700       0.19448385      -0.52620514      -1.24031614
Fe       4.33544000       3.44997000       2.32066000      -0.11113800      -1.13838700      -1.07293100      -0.54207898      -1.09095023      -0.70381017
B        3.57517000       5.19498000       5.67296000       0.02909700       0.11803400      -0.79539700      -0.26963855       0.00625876      -0.30091904
B        3.19573000       2.72151000       0.39559000       0.66935000      -0.21215000       0.29819600       0.63424363       0.16858443       0.32390299
B        5.29133000       1.80166000       3.36631000      -0.61772000       0.64460000       0.91903000       0.42925133       0.56227828       0.46710304
Si       4.71818000       1.13888000       1.41442000      -0.10426200       0.47055800       1.10054900      -0.12545202       0.37883611       0.42681915
Si       4.28766000       1.00056000       5.32612000       0.59498300      -0.65540400      -0.44130900       0.73217423      -0.68016887      -0.00429448
Si       5.54384000       3.13095000       0.10152000      -1.56746300      -0.19393100       1.11606100      -1.72807825      -0.43182006       0.91067013
18
Lattice="6.5 0.0 0.0 0.0 6.5 0.0 0.0 0.0 6.5" Properties=species:S:1:pos:R:3:REF_forces:R:3:MACE_forces:R:3 config_type=Fe12B3Si3 REF_energy=-121.19386358 MACE_energy=-129.8459833439931 pbc="T T T"
Fe       5.14122000       2.95219000       5.73762000       1.07543100      -1.06473800       0.02092700       0.53920069      -0.81091093       0.31914838
Fe       3.44786000       4.68004000       0.56712000      -1.37847800      -1.17368900      -1.22189300      -1.62080398      -1.40346935      -0.73074378
Fe       2.82511000       0.89193000       5.14374000       0.13259800       0.26355500       0.40255800       0.17244802       0.19121807       0.21623129
Fe       5.03673000       0.78459000       3.29286000      -1.26774300      -0.96440500       0.08926900      -0.96732244      -1.02858092      -0.20528791
Fe       0.04417000       2.47999000       3.55018000       0.57964100       0.99759000      -0.45241400       0.47929955       1.15973033      -0.45531893
Fe       3.80021000       2.12637000       1.07746000       0.18867900      -0.22764200      -0.16605100       0.30029451       0.05383144      -0.15116185
Fe       0.53180000       4.23439000       5.25038000       0.13821800       0.93416200      -0.11674800       0.57270284       0.45731866      -0.38132888
Fe       5.29502000       5.19686000       1.57483000       0.63888900      -0.01824700       1.31027900       0.79976807       0.42248655       1.47349473
Fe       4.81829000       5.67816000       5.38797000       0.86574200       0.53683900       0.64982300       0.00652012       0.83045557       1.15577979
Fe       0.56712000       1.81843000       0.78586000       0.14808100       0.22443800       0.34380200       0.18990923       0.25804581       0.37089777
Fe       3.21410000       3.62554000       4.76333000      -0.48471200       0.05504400      -0.37129100      -0.50100973      -0.04165420      -0.31643103
Fe       2.59511000       0.04657000       1.62822000      -0.15086800       0.20181900      -0.19923600      -0.42994997      -0.04618326       0.14623426
B        1.70005000       4.09276000       3.58297000       0.50063800      -0.74222000       4.89755200       0.66770871      -0.31935925       5.14962373
B        0.43268000       5.13544000       0.50731000      -0.62762600       1.39885300      -1.30398100      -0.42272789       1.56662997      -1.51432488
B        5.33026000       4.94544000       3.73632000       0.22606000      -0.48056500      -0.66320000       0.52281751      -0.62636066      -1.35188339
Si       2.28782000       2.00516000       2.88410000       0.36394600       0.12179600       0.89171700       0.12367269       0.04421722       0.75728039
Si       1.34690000       4.20152000       1.89580000      -0.46324100      -0.07460600      -4.35928800      -0.42150167      -0.55875540      -4.38485167
Si       0.33802000       0.64631000       5.13835000      -0.48525500       0.01201700       0.24817700      -0.01102626      -0.14865964      -0.09735803
18
Lattice="6.5 0.0 0.0 0.0 6.5 0.0 0.0 0.0 6.5" Properties=species:S:1:pos:R:3:REF_forces:R:3:MACE_forces:R:3 config_type=Fe12B3Si3 REF_energy=-121.83631974 MACE_energy=-130.22428879328936 pbc="T T T"
Fe       2.32189000       0.53919000       4.43628000       0.62348700       0.62161200      -0.30037500       0.50908423       0.54444280      -0.04598462
Fe       0.85962000       3.43397000       4.87265000      -0.12660300       0.92813600      -0.14204200       0.32471945       0.71403654      -0.66532985
Fe       3.14478000       3.12586000       5.02575000       0.59721000      -0.57204800       0.02419900       0.50643840      -0.68718840       0.08452742
Fe       5.60986000       1.49763000       1.76525000      -0.15598800       0.54195100       0.25919200       0.18919478       0.48480159       0.45670014
Fe       1.35689000       1.02230000       1.46682000      -0.86025900      -1.50913200      -0.02236000      -0.88988252      -1.49001885       0.30132160
Fe       1.53652000       5.21131000       2.91051000       0.14684300       0.83240900       0.92372000      -0.42365208       1.11436688       0.49665455
Fe       5.42176000       2.41204000       4.26359000      -0.63460300      -0.19320800      -0.86948000      -0.78600636      -0.23742555      -1.01211546
Fe       2.69083000       2.61526000       0.85844000       0.58099200       0.46413400      -0.42101400       0.88054578       0.61499228      -0.03081731
Fe       3.69565000       0.41570000       1.52873000      -0.38863400      -1.79496800       0.36436300      -1.02262631      -0.95737428      -0.16171612
Fe       5.29642000       0.71728000       5.92537000      -1.13878800       0.21021100       0.33601900      -1.10755188       0.14127178       0.31624240
Fe       2.43404000       4.91723000       0.69122000      -0.67719900       0.42452500      -0.50222800      -0.74188942       0.53969462      -1.05711088
Fe       0.38184000       3.41911000       2.21740000      -0.05622500      -0.60860100      -0.28154900      -0.14895580      -0.33345475      -0.35132617
B        0.60495000       2.82168000       0.18824000       0.45495900      -0.82411900       1.12072500       0.37545772      -0.85266376       1.45808684
B        4.46032000       5.11021000       0.86305000      -0.16597900       0.94437700      -0.17078000       0.27588241       0.79088222       0.10407893
B        4.50224000       0.61436000       3.35420000      -0.21081700       0.21979200       0.95013200       0.05870050       0.13519947       0.95414903
Si       0.41559000       5.76097000       5.42597000       1.25807400      -0.80112100      -0.45097400       0.86284162      -0.63121715      -0.22797907
Si       5.04192000       3.28673000       0.17892000       0.12615100       0.01238900      -0.22951000      -0.02261150      -0.61125045      -0.47274056
Si       3.63769000       4.96485000       3.77806000       0.62737900       1.10366300      -0.58803800       1.16031098       0.72090501      -0.14664088
18
Lattice="6.5 0.0 0.0 0.0 6.5 0.0 0.0 0.0 6.5" Properties=species:S:1:pos:R:3:REF_forces:R:3:MACE_forces:R:3 config_type=Fe12B3Si3 REF_energy=-121.52509482 MACE_energy=-128.89167743418733 pbc="T T T"
Fe       5.35369000       5.79500000       1.92697000       0.93009700       0.21272200       0.30334600       0.95767911       0.43167038       0.22424343
Fe       2.76775000       2.65119000       2.12707000      -0.32421800      -0.48392200      -0.17557400      -0.02933068      -0.30618063      -0.21873735
Fe       0.95782000       3.82419000       5.40578000       0.10971500      -0.17899400      -2.04142600      -0.02748514      -0.36429327      -2.25916519
Fe       0.03218000       4.37962000       0.68550000       0.11657700      -0.41259800       0.85513400      -0.27389463      -0.09475217       0.24686518
Fe       1.84755000       0.88889000       3.81096000      -1.44375300      -0.68888000       0.86572800      -1.92266858      -0.79715305       1.19150788
Fe       1.16808000       4.93779000       2.52478000      -0.28262200       0.22668300       0.83147000      -0.53021462       0.33393097       1.67809514
Fe       4.57564000       3.78620000       5.52286000       0.47796700       0.02734200      -0.30762900       0.39859175       1.00168985      -0.80646270
Fe       1.78348000       1.76727000       0.19912000      -0.26827800       0.03695300      -0.74819700      -0.40072045      -0.40825982      -0.85466171
Fe       4.14268000       1.27653000       5.44637000       0.32298300       0.47804900       0.87136900       0.37839577       0.06209107       0.95453854
Fe       0.39350000       2.02322000       2.40882000      -0.76609100       0.51871000      -0.97730800      -0.73206554       1.06247762      -0.80779348
Fe       4.81568000       2.96526000       1.14778000      -0.14924600       1.24611400       0.04356300       0.06127844       0.51252418       0.28070026
Fe       3.84539000       0.30930000       3.37137000       0.29154400       0.59907800       0.00228600       0.73996488      -0.53536468       0.11451508
B        0.56106000       0.29730000       1.37744000       0.44563300      -0.18325700       0.09294600       0.35345634      -0.44591058      -0.16733667
B        4.70692000       1.17670000       1.77222000       0.30524300      -0.18357100       0.58365200       0.02320432      -0.01217611       0.44812504
B        5.38157000       1.57638000       3.57119000      -0.67590100      -0.19578700       0.11893400      -0.43026866       0.00681837       0.42143441
Si       1.82718000       5.79703000       6.49835000       0.39538000       0.26005200      -0.26180200       0.70188846       0.17089996      -0.32607349
Si       3.31810000       4.97491000       2.09981000       0.38303800      -1.16180900      -0.78364900       0.14145585      -1.07109309      -0.63831634
Si       2.73378000       2.94839000       4.34012000       0.13193200      -0.11688600       0.72715900       0.59073340       0.45308098       0.51852195
18
Lattice="6.5 0.0 0.0 0.0 6.5 0.0 0.0 0.0 6.5" Properties=species:S:1:pos:R:3:REF_forces:R:3:MACE_forces:R:3 config_type=Fe12B3Si3 REF_energy=-121.02444435 MACE_energy=-129.5468731991431 pbc="T T T"
Fe       1.39149000       2.20308000       5.17931000      -1.09901500       0.96004600       0.36173300      -1.00063909       1.16075831       0.30673009
Fe       3.62747000       4.68659000       1.02510000      -0.06982100      -3.26377800      -2.89944800       0.53589582      -3.01080506      -2.77369103
Fe       1.80395000       3.40407000       2.57062000       0.23159400      -1.19456800      -0.45276000       0.78270928      -1.31269634       0.25657724
Fe       2.94213000       0.60236000       5.71573000       0.15339300      -0.69866300       0.64874700       0.63733588      -0.74252756       0.76068442
Fe       5.38115000       2.52906000       6.43321000      -0.23682700       0.12156600      -0.19922500      -0.35914693       0.26937576      -0.21245906
Fe       0.12195000       6.11226000       5.45936000      -0.39712500       0.65309400      -0.05083800      -0.04085196       0.55310637       0.39132704
Fe       4.34835000       1.98723000       2.40957000      -1.01480500       0.74572900      -0.29346500      -0.96967681       1.54634338       0.19060801
Fe       1.53424000       4.10029000       0.18089000      -0.42864200       1.56111100      -0.02192200      -0.61346893       1.35782944      -0.61798524
Fe       0.31466000       0.53942000       1.14637000       0.10838100       1.15710500      -0.20059100      -0.24043827       0.40707591      -0.00614460
Fe       0.47952000       5.25453000       2.73419000      -0.30982000      -0.02579600      -0.14735200      -0.73700745       0.10564981      -0.71588371
Fe       4.50027000       0.31801000       0.96733000       0.32284000      -0.13474100      -0.50344800       0.10896898      -0.40660713      -0.86326865
Fe       1.70353000       0.42976000       3.75274000      -0.32967600       0.43159600      -0.88117700       0.14049979       0.41434401      -0.95903057
B        6.18518000       4.55381000       4.41125000      -0.17318900      -1.03892600       0.51683300      -0.43609571      -1.32761070      -0.10857737
B        2.12650000       0.37704000       1.77055000       1.33709500      -0.20335800      -0.64256200       1.28197437      -0.16176517      -0.41593878
B        0.73517000       2.44792000       0.79322000       0.36639400      -0.14615100       0.11805600       0.23499210      -0.05236259       0.42893263
Si       3.51439000       5.61877000       2.79115000      -0.45728700       1.49076800       4.26033400       0.01401189       1.33172182       4.18128452
Si       4.26138000       4.96562000       5.31398000       0.76080200       0.01330700      -0.27175900       0.08205603       0.10711932      -0.48354817