54
Lattice="8.579999685 0.0 0.0 0.0 8.579999685 0.0 0.0 0.0 8.5799996" Properties=species:S:1:pos:R:3:REF_forces:R:3:MACE_forces:R:3 config_type=Fe34B10Si10 REF_energy=-352.89092233 MACE_energy=-353.92619049826897 pbc="T T T"
Fe       1.46495000       0.71583000       1.12880000       3.73230100      -3.41607500      -3.76209700       3.58984380      -3.06610584      -3.19200493
Fe       0.56244000       2.07917000       1.96452000      -3.31290700       4.06628900       2.54508600      -3.58716672       3.89019649       1.91703976
Fe       0.86636000       2.12990000       5.00906000     -10.85567700      -2.87102900      12.20968700     -10.40344069      -2.62345464      12.12524535
Fe       0.24697000       2.61233000       7.83061000      -0.37811800      -2.03816900      -0.08744800      -0.37430485      -2.56826773       0.27014052
Fe       0.35437000       4.66395000       8.16447000      -1.30300600       1.62250000       0.84662400      -1.45636079       2.25867446       0.96489654
Fe       0.83543000       8.00840000       3.01492000       5.54921000      -2.55787300       0.52513800       5.61384876      -2.85984767       1.10622547
Fe       2.03952000       7.84431000       6.63062000      -4.28706100       1.82495200      -1.68802900      -4.43665132       2.19995228      -1.75300128
Fe       3.34318000       0.11090000       2.96052000      -0.46571400      -0.35056300       0.37864800      -0.54464984      -0.13833060       0.73012260
Fe       3.26317000       2.11539000       1.48699000      -3.47884800      -0.03222100       0.61542300      -3.27507337       0.01910560      -0.38051436
Fe       4.14313000       2.75755000       3.31065000      -0.71378000      -2.73118300       1.93004800      -0.15848413      -2.06446585       1.68004026
Fe       2.55051000       2.67374000       7.19710000      -2.55215900      -0.93589000       1.77261600      -2.37599446      -0.99009864       1.84446375
Fe       3.61327000       2.86500000       5.46497000       1.55763200       0.20514300      -0.56676300       1.51362291       0.48868945      -0.85215704
Fe       2.62400000       4.72550000       1.39174000      -1.08585200      -1.19598700       0.59645400      -1.03856816      -1.19571287       0.62750311
Fe       2.20317000       5.21693000       3.87451000      -3.92870900      -4.38103900      -4.92199500      -3.79518623      -4.55163203      -5.60822611
Fe       3.93082000       4.37819000       8.08226000       1.07616800       0.44807800      -0.99700400       1.17082985       0.41977614      -0.31813953
Fe       2.44961000       7.01753000       1.08943000       0.32119000      -1.55635000       3.27006500       0.52608269      -1.26498545       2.70673771
Fe       3.02500000       6.15780000       5.08193000      -1.08486800       1.64126100       3.95415400      -0.10364119       1.75782039       4.64765344
Fe       5.77712000       0.44616000       0.16142000      -2.43333700       0.07175000       4.13474700      -2.01572433       0.21573146       4.22977912
Fe       5.66964000       0.14892000       2.95259000      -3.67617900       1.90971100       0.12919700      -3.61222742       2.02773604       0.05784643
Fe       5.39484000       2.66317000       1.55162000       4.08183700      -3.39937100       3.88213200       3.80931984      -3.44815309       3.98552307
Fe       5.91309000       3.40423000       8.31953000       8.90196200       5.48305700      -2.72562400       8.12726386       5.47864777      -3.00255752
Fe       4.96126000       4.63305000       3.41410000      -3.60269200      -2.00302700       2.25051900      -3.74696928      -1.96690956       3.33093537
Fe       5.11347000       6.81217000       1.78872000      -0.87770500       0.06714300      -1.61156800      -0.82971472       0.13014811      -1.95049267
Fe       5.00950000       6.45991000       8.24507000      -2.30619500      -0.19808200      -1.52355700      -2.28724190      -0.47400308      -1.94906834
Fe       4.64263000       7.71190000       5.75084000       2.50156800       4.23919200      -1.55456800       2.74842620       4.46051103      -1.41318427
Fe       7.32285000       0.33022000       5.03535000      -0.99210900      -0.59745100       4.73628300      -0.67332216      -0.45774656       4.44190254
Fe       6.75330000       1.32958000       7.05071000       0.53851300       2.01290400       0.36400700       0.46603241       1.30801958       0.47187014
Fe       6.82686000       2.53028000       3.66692000      -0.08907100      -0.12987400      -0.26318300       0.25459050      -0.12920507      -0.55639590
Fe       6.83617000       5.56618000       0.59386000       1.74434500       1.47371700      -3.32847200       1.46162094       0.98542262      -3.23860316
Fe       8.27091000       4.29855000       2.87718000       3.23308900       0.33980500       1.37352500       3.05570984      -0.00817995       1.31178787
Fe       6.58774000       4.90718000       4.97515000      -1.87594500       0.58060600      -0.05143700      -2.36724704       1.48632380      -1.44008666
Fe       6.86773000       6.79187000       3.27473000       1.52763600      -2.76254700       0.67579100       1.44655985      -2.53711585       0.58374341
Fe       8.09083000       8.29691000       0.84396000      -4.18921500      -1.95965200       9.56442300      -3.75271273      -1.41138155       9.90621841
Fe       6.62133000       7.67903000       7.47205000      -3.65417600       1.51975600      -3.32990400      -4.52849143       1.45875169      -4.00544915
B        3.45077000       6.81738000       6.75435000       2.04131500      -2.79808300       3.80923700       2.22379177      -3.17328371       3.78528755
B        4.67436000       1.10514000       4.73414000       0.75036200       0.95391600      -0.52852700       0.23093918       0.09190027      -0.32867923
B        6.18153000       2.20088000       5.47737000      -4.49435700      -3.20609500      -2.27763700      -4.35920480      -2.65881547      -2.31718801
B        5.08133000       4.10197000       6.35983000       0.35152900       0.25548900      -0.65354500       0.38489625       0.08876561      -0.17354051
B        4.48663000       4.29393000       1.40792000      -0.27448100       1.04603100       0.21283300      -0.46424273       1.03324972      -0.00375354
B        4.96286000       5.88068000       6.14703000       0.60492000      -1.85032800       0.29314600       0.10726451      -1.41812891       0.55181586
B        8.17242000       5.65216000       5.55863000       1.00443800       0.65677900      -0.69824300       2.40721443      -0.07945033      -0.66567157
B        7.98743000       6.92663000       6.60530000       5.86774900       2.58695800      -4.05103700       5.05037488       2.50379292      -2.84488626
B        7.10769000       5.72812000       6.91109000      -2.33709700      -3.34606800       1.34633400      -2.40277537      -3.19961762       1.77216773
B        7.81665000       6.81498000       8.33858000       5.04350100      -2.41043400       0.97359300       4.98905124      -3.06634492       0.33641211
Si       0.06983000       0.14925000       7.74742000       4.12649000       2.60901100      -8.87608100       4.25281861       2.88784314      -8.85351991
Si       1.93337000       2.41223000       3.74634000      10.14534600       2.98113100     -12.18526000       9.67996118       2.74168243     -11.38038951
Si       0.75978000       6.02813000       1.69309000      -4.13401100      -0.74920300       1.02787300      -3.52322308      -1.13863529       0.76408483
Si       2.22023000       5.10313000       7.16329000      -1.58663400       1.19675500      -1.89967800      -1.52664763       1.24371991      -1.83817469
Si       3.27754000       8.17117000       8.35443000       4.04667900       4.58101600      -2.24829100       3.68444257       4.56365285      -1.77164923
Si       4.48145000       2.18337000       8.34202000      -5.72220500      -5.96162700      -4.99603400      -5.75146657      -5.93861224      -4.86392241
Si       6.36439000       4.54151000       2.12641000       2.28764700      -2.33178900       1.39384200       2.29677995      -2.08887770       0.89799248
Si       4.52267000       6.51460000       3.75633000       0.42177200       5.22743800       1.25328700       0.41080598       4.99994505       0.71969753
Si       7.68278000       0.22257000       3.11016000      -0.17295300       4.89916800      -3.86478000      -0.36830532       4.44232161      -3.95274677
Si       7.35363000       3.38410000       6.13231000       4.40786200       1.27045000       2.62604800       4.25694624       1.33498181       2.88686959
54
Lattice="8.579999685 0.0 0.0 0.0 8.579999685 0.0 0.0 0.0 8.5799996" Properties=species:S:1:pos:R:3:REF_forces:R:3:MACE_forces:R:3 config_type=Fe34B10Si10 REF_energy=-354.71875992 MACE_energy=-354.0358966782909 pbc="T T T"
Fe       0.43313000       1.19321000       2.96848000       1.47291300       2.99028000       0.61180900       1.92308116       2.60633123       0.60097597
Fe       0.91365000       1.12516000       8.09995000       2.76260400      -2.00335600       1.20968300       2.72029351      -1.77368272       1.53940623
Fe       1.17142000       2.67870000       5.23446000      -1.90323000       6.04651700       0.58026800      -2.81391459       6.57922328       0.48975608
Fe       0.60772000       3.85484000       0.87278000       2.66909500       4.89444800       4.53699300       2.55456978       5.45356469       4.30321458
Fe       1.41565000       3.44858000       3.01161000      -0.29549500       2.03729500      -0.74017400       0.36691974       1.73923527      -0.59323216
Fe       0.04226000       2.91249000       8.09734000      -3.39897200      -2.84207300      -2.69442200      -3.86115084      -3.35091666      -3.30073549
Fe       1.33282000       7.09057000       5.22634000      -0.45239700      -1.35392500       0.92503500       0.03522936      -1.37091918       0.72048187
Fe       2.06045000       7.92051000       0.98063000      -3.11321000      -0.30108300      -2.49280600      -3.71874313      -0.41907594      -2.65812188
Fe       2.03627000       8.24295000       3.50701000      -1.42216600       4.38122900       0.88517600      -1.64983083       4.05019532       0.59017495
Fe       0.01253000       8.02686000       7.00667000       2.58679700       0.98610200     -11.80201700       2.09004278       0.53115788     -11.73564378
Fe       3.00353000       0.57289000       6.13981000      -1.03922300       0.18357300       0.93137300      -0.59015263       0.57925880       0.74192957
Fe       3.69949000       2.65196000       7.51811000       2.76433000      -4.34399200      -3.80269000       1.72776218      -3.97253945      -3.95947014
Fe       2.94478000       6.44154000       3.03987000       7.21319500      -3.66655800      -1.17614100       7.39505903      -2.85222690      -0.49536768
Fe       2.94309000       5.75189000       6.64956000      -6.24071800      -0.74678300       3.86021800      -6.03305755      -0.77990097       4.56076449
Fe       3.71160000       8.39321000       1.86324000       2.24845700      -0.43546600       0.28887200       3.17727507      -0.12105918       1.03018245
Fe       4.07810000       8.43915000       4.32840000       2.88035800       1.28304800      -0.49181300       2.72722316       1.56963666      -0.68958533
Fe       5.57499000       0.73262000       6.31633000      -3.12774100      -1.68249800      -0.98058200      -2.87437732      -2.34726153      -1.59098088
Fe       4.70712000       1.94493000       1.65492000      -2.04675700       4.97917500      -3.67899600      -1.05724447       4.63305788      -4.08521896
Fe       4.73401000       4.18392000       1.24748000       0.71501700       1.80608500      -0.06999200       0.75466501       1.66127140       0.09159312
Fe       4.56687000       4.22266000       4.39618000       0.73801700       3.32591500      -2.10569900       0.29782943       4.31908678      -2.63407901
Fe       4.51224000       4.61167000       7.05684000       2.53211900      -0.41024200       0.53825400       2.82557174      -0.19825883       0.37112660
Fe       6.32808000       6.81945000       4.24288000      -3.20445400      -0.33519400      -1.28892300      -2.66562428      -0.46335195      -1.21687923
Fe       6.22240000       7.17309000       0.16230000      -3.30904600      -2.75215800       1.90373500      -3.00801422      -3.02579516       1.97265729
Fe       4.54224000       7.44382000       7.03838000       0.17895600      -5.02037800      -8.74618400       0.01031318      -5.00197196      -7.85179276
Fe       4.73272000       8.55832000       8.35561000      -0.10588400       8.96287400       6.54083400      -1.15406598       8.38512366       5.37710283
Fe       7.67285000       2.82429000       2.17742000      -2.12886900      -0.76272600      -2.06587500      -2.41562040      -0.85972318      -2.02817536
Fe       6.74071000       1.77406000       4.33655000       0.47479500       0.50025500      -0.42349800       0.07732659       0.63719152      -0.63174101
Fe       7.16362000       1.61896000       6.68131000       5.11373900       1.83737400       0.70818800       5.08269512       1.83612234       1.07413772
Fe       6.73653000       4.13840000       7.84564000       0.19062300       0.32905600       3.59274800       0.09421669       1.33125078       3.75440297
Fe       6.61248000       5.35948000       2.44590000       0.96755600      -0.77403900      -0.47053600       0.58484325      -0.60516802      -0.34150968
Fe       8.39074000       4.95678000       4.82580000       0.50677700       3.21370700       1.22596300       0.82547518       2.83330757       1.07032943
Fe       6.62275000       6.29700000       6.29237000       0.91106900      -0.58785400       1.74696000       0.66854739      -0.58440771       1.80332001
Fe       8.00875000       8.14674000       2.12563000      -1.25903800      -1.94608200      -3.37077000      -1.41432618      -1.57490107      -3.88574404
Fe       7.96861000       8.10559000       4.08816000       1.24434400       0.03207600       4.40361200       1.01485537       0.33663273       4.61478817
B        3.14587000       1.61638000       2.59818000      -3.96044800      -1.57388800      -2.24367700      -3.89890467      -0.92797929      -1.42174284
B        4.07212000       1.93087000       3.78701000       0.55534200       0.12762300      -3.25123200       1.03609025      -1.26095455      -3.60794505
B        2.24412000       1.90783000       4.05913000      -1.80380000      -9.70850100      -5.48536600      -2.58996844     -11.04382908      -4.89686411
B        2.90130000       3.06657000       4.45062000       2.48509300       7.60479000      -1.50334300       3.06026425       7.81997789      -1.62473918
B        2.82587000       3.80138000       5.80651000       0.21675600       2.27927400       3.92227300       0.66332617       2.68515015       3.41159623
B        2.60929000       5.04297000       1.66311000       0.12617300      -0.77075900      -0.46531300      -0.08735802      -0.81626981      -0.48623286
B        2.47198000       4.95014000       4.32601000      -0.76752800      -1.31946700       0.35153300      -0.79098592      -1.65103568       0.64185723
B        2.73354000       7.81887000       7.66829000      -1.47869400      -0.15377200       0.00458000      -0.94344335      -0.16347275       0.11159893
B        5.68071000       2.28134000       7.79544000      -0.95924500       0.41857400       1.11780500      -0.43954245      -0.05737999       0.94973385
B        7.77536000       3.70665000       3.76574000      -0.44877700      -1.48394500      -0.38974400      -0.70790566      -1.39799458      -0.21093293
Si       0.79518000       0.92195000       5.77957000      -1.66645900      -4.94136200      -1.10925300      -1.32733131      -4.80886315      -0.90639610
Si       0.88055000       4.20706000       6.73551000       1.15626000       3.58432200      -0.32349000       1.11301918       3.54005507       0.19373538
Si       1.15025000       6.44729000       2.43826000      -7.77651300      -1.83655100      -1.54918700      -8.03521139      -1.69507847      -1.96688350
Si       2.82820000       3.29548000       0.50208000      -4.05499500       1.58525200       5.32597100      -3.58081421       1.25376825       4.71107096
Si       4.14031000       6.38272000       0.30005000      -2.16949800      -2.44928300       2.57761000      -2.17679985      -2.20851997       2.09843840
Si       3.68345000       6.43010000       5.01209000       3.98893100       0.98565200      -2.13453700       3.85030881       1.23579159      -2.18532243
Si       5.73751000       0.59059000       2.53265000       5.08228400      -4.90021500       2.23852200       4.58645373      -4.55112396       2.83920538
Si       4.51163000       2.47994000       5.36819000       2.60737700      -2.86786400       7.12589500       2.69510422      -2.76393550       7.19562114
Si       6.43436000       3.75222000       5.86206000       1.38008400       0.66155200      -3.64612400       1.04016360       0.42479451      -3.25472197
Si       8.06432000       7.52318000       8.55473000       2.36409700      -3.06603600      11.34847700       2.83586279      -3.39358805      11.40085654
18
Lattice="6.5 0.0 0.0 0.0 6.5 0.0 0.0 0.0 6.5" Properties=species:S:1:pos:R:3:REF_forces:R:3:MACE_forces:R:3 config_type=Fe12B3Si3 REF_energy=-113.87843945 MACE_energy=-121.2569278490125 pbc="T T T"
Fe       5.40234000       5.43492000       1.53729000      -1.39532100       2.04028400       0.71142300      -2.58841438       2.67426674       1.15556366
Fe       2.09750000       2.10361000       0.54730000       2.35673700      -0.33103000       1.27254800       2.87931949      -0.60581916       2.70312889
Fe       2.84360000       1.73250000       3.81271000       2.28004000      -1.18251600      -0.27344700       2.30419191      -1.25821423      -0.45913453
Fe       0.77541000       4.93717000       1.04317000       1.56096300      -3.83372900       1.76362000       2.44269935      -3.95654370       1.63244478
Fe       0.07665000       3.70431000       3.74351000      -0.75952900      -0.39175400      -2.23189700      -1.09209809      -0.38844659      -2.18609497
Fe       4.77171000       3.58949000       4.78220000      -1.99219600      -4.62409700       0.48420500      -1.41742280      -4.40224099       0.38167519
Fe       4.12430000       1.49867000       1.46476000       0.29771700      -2.38794700       0.28396300       0.48890873      -3.60012116       0.88423185
Fe       0.95387000       5.17746000       5.28728000      -0.57085000      -0.50160400      -1.80733600      -0.60853843       0.10550561      -1.36032492
Fe       1.93602000       3.09888000       2.36598000      -0.08855100       0.43128300      -0.27209000      -0.19660982       1.05026637      -0.84508923
Fe       5.69037000       1.28357000       4.20026000      -0.40866000      -0.49067900       0.18976600      -0.64767426      -0.49562144       0.30355197
Fe       1.94321000       2.86141000       5.39871000      -0.55906500       0.73218900      -1.80086600      -0.96518280       1.93460503      -2.46256590
Fe       4.33122000       5.38124000       5.25469000      -0.73272900       4.56545400       1.52017900      -0.78905011       4.58088194       1.26076654
B        0.37598000       1.64060000       1.21420000      -3.21263000       2.85095800       0.76078000      -3.40142514       2.74312748       0.13752307
B        1.88110000       4.04794000       3.96741000       2.48956600       2.45119300      -0.32261600       2.63750466       2.15513599      -0.35979950
B        3.63878000       0.94242000       5.41981000      -0.01444500       0.67937600       0.95779200       0.45257209       0.00145532       0.81055690
Si       1.19380000       0.26963000       0.19686000       0.54051800       0.24528300      -1.93219100       0.54287601      -0.23396296      -2.14734166
Si       4.57825000       3.47658000       1.16117000       0.15934200       1.26766700      -0.81102600      -0.18733022       1.44673104      -0.93616639
Si       1.09558000       0.76720000       2.75124000       0.04909300      -1.52033200       1.50719200       0.14567382      -1.75100531       1.48707425
54
Lattice="8.579999685 0.0 0.0 0.0 8.579999685 0.0 0.0 0.0 8.5799996" Properties=species:S:1:pos:R:3:REF_forces:R:3:MACE_forces:R:3 config_type=Fe34B10Si10 REF_energy=-356.0869274 MACE_energy=-356.2232314667678 pbc="T T T"
Fe       0.92877000       1.08311000       2.12831000      -0.53214900      -1.15432400       0.53007800      -0.47082908      -0.56756228       0.63137647
Fe       1.12794000       0.45096000       7.37327000      -2.86345100       2.18226700       1.45805300      -2.56064759       2.24808096       1.76050030
Fe       0.91289000       3.61082000       1.96264000      -1.66570100       0.50807500      -4.76654600      -2.43989387       0.03265713      -4.55920217
Fe       0.97242000       3.25012000       3.83975000      -0.85629000      -1.23507100      -0.91491200      -0.31460628      -0.70026921      -0.14063130
Fe       1.43574000       3.84332000       5.84621000      -1.94378300      -0.72872400       4.94145300      -1.73184564      -0.87440021       4.14625329
Fe       0.45897000       5.99881000       1.32384000       1.86679900       1.45939200      -0.33976700       2.13765980       1.88163828      -0.32109485
Fe       0.05714000       6.25044000       6.01250000       0.66851500      -0.88142700       1.67028200       1.23242576      -1.16944579       1.83938675
Fe       1.87526000       7.05991000       7.27744000      -5.90957000       6.81146600       5.95768600      -5.79277017       7.00840750       5.15257521
Fe       4.21220000       0.80536000       3.81626000       0.44958900      -1.97725700       0.54591300       0.38331202      -1.61226130      -0.09959481
Fe       2.64196000       0.75311000       5.88605000       0.80305000      -0.92688600      -1.50973400       0.46233918      -0.63296267      -1.52574388
Fe       2.51735000       4.27963000       7.86001000      -0.17185400       2.88247300       0.00075600      -0.46015997       2.39979991      -0.58668077
Fe       2.46175000       4.76211000       4.38544000       2.27245000       6.36429500      -0.60000700       2.22766354       5.47496234      -0.98563068
Fe       3.99132000       4.46692000       6.09268000      -0.21521200      -1.96607600      -0.25853400      -0.60172912      -2.13376143      -0.68429195
Fe       4.03283000       6.20484000       2.50717000       0.32509400      -1.83048700       1.07686200       0.57394664      -1.83564364       0.80750832
Fe       2.62183000       8.12097000       1.25125000      -5.45108600      -1.04608100      -0.88869000      -4.59994653      -1.30626042      -0.69805545
Fe       2.34208000       7.49949000       3.33705000      -1.45221900       0.10179900       1.96325000      -1.37288591       0.26514911       1.92551733
Fe       4.67554000       0.98699000       8.35162000       1.97529500       0.95938300       0.07305200       2.35263460       1.03076689       0.51996962
Fe       4.68615000       2.28426000       1.60336000       6.03713100       4.39249100       1.56082500       7.16585538       4.54605517       1.40769791
Fe       4.95897000       4.28949000       0.91503000       1.24258400       3.77490300      -1.07876200       1.75092931       3.48203382      -1.42050516
Fe       5.62605000       3.84953000       3.25301000      -4.56775200       3.43217100       2.09526400      -4.47153469       3.49483381       1.05940842
Fe       5.63153000       5.70233000       4.67966000       0.04558900       0.36352900      -0.74034800      -0.61688592      -0.18332353      -0.57569187
Fe       5.00954000       6.14620000       6.89198000       4.51113600      -2.60361300       1.43664400       3.64934270      -2.42181475       1.39776613
Fe       5.34723000       7.32984000       0.56425000       3.41130600      -7.55812200      -7.44238600       3.20622128      -6.77369854      -7.14618775
Fe       4.57141000       8.20633000       1.67615000      -2.51651100       6.57056000       9.11650700      -2.97548848       6.04332254       8.86388285
Fe       5.67084000       7.83697000       6.02451000      -0.02983000       3.57151200       0.33120700       0.00886853       4.42653306       0.45319367
Fe       7.65837000       1.05332000       0.64336000       1.95813700       2.93603900      -3.62028800       1.62875891       2.81654990      -3.74809503
Fe       7.23579000       1.49494000       3.62009000       0.88838800      -1.50203300       3.00240400       0.44413275      -1.21473222       3.13199876
Fe       6.96409000       1.59543000       6.70415000       0.40175100      -2.57633900      -0.54943900       0.45668733      -3.09185550      -0.46478412
Fe       6.97946000       3.05325000       2.27831000       3.01329100      -2.85779700      -7.80747400       2.52534033      -3.85017322      -6.34025133
Fe       7.05854000       3.62734000       7.13255000       0.94483300       2.42104600       2.56329500       0.97196922       2.88461698       2.19381837
Fe       7.47490000       4.49325000       0.92243000      -3.13561000       0.06366500       0.11142200      -3.26172504       0.73859548      -0.81227516
Fe       7.76499000       5.40883000       4.05655000       3.42051700      -2.49950500       1.10150300       3.56976351      -2.34555827       0.82908304
Fe       6.91686000       6.16423000       2.38917000      -4.34160700       0.52717700      -3.24358900      -4.84423013       0.18869209      -2.78076417
Fe       7.31773000       7.39473000       4.73130000      -1.41907300       3.06948200       1.38572900      -1.14228067       3.36839918       0.90340955
B        1.63947000       5.44017000       2.85377000      -1.37965300       1.67099600      -0.34434500      -1.48799994       1.58989066      -0.19631398
B        3.47444000       1.29905000       1.69513000      -6.04542900      -7.46227000      -1.52467000      -5.63059235      -7.36198674      -1.06070882
B        2.31673000       1.42955000       3.77944000      -1.85652800      -2.14982900       3.21956500      -1.36467048      -1.86620671       2.97738606
B        3.17088000       0.01260000       8.16689000      -2.14308300      -0.12737100      -3.63430700      -1.73915452      -0.47104693      -3.00741202
B        2.48887000       2.23189000       2.44876000      -1.30373000       3.96631200      -0.94871100      -1.13373013       4.00406216      -0.21259055
B        3.55016000       3.21990000       0.17024000       2.13469500      -3.52588700       0.23974700       1.61333898      -3.42689753       0.70298666
B        3.12966000       3.07291000       4.24572000      -6.99085300       0.34377600      -0.16579100      -6.78594217       0.06939532       0.12379117
B        2.38358000       5.95301000       6.34325000       2.25901800      -8.76611800      -6.31465800       2.43937516      -9.28980121      -6.34299499
B        4.46260000       2.62992000       4.23823000       7.08507900      -1.75449200       0.40993300       5.78280492      -1.99155626       0.01569641
B        7.51183000       3.59374000       3.85724000       1.49621300      -1.20378300       3.39561400       1.52628716      -0.94903489       3.47300159
Si       0.50050000       1.66927000       5.10425000      -1.02554400      -2.67263500       2.61432900      -0.67310392      -2.60794416       2.34195590
Si       0.41923000       4.50138000       8.15701000       0.82744200      -0.47721100      -2.57541600       0.95886934      -0.11118377      -2.72382157
Si       2.90131000       4.25049000       1.93860000       2.71957100       0.04497600      -0.88170100       2.67681826       0.06156015      -0.65395941
Si       3.74353000       6.85388000       5.19884000      -1.20766000       1.80214700      -2.20114300      -1.24817220       1.51002667      -1.84136181
Si       3.54209000       6.47938000       8.21357000      -0.45014500      -1.75854100       4.24377300      -0.38753787      -1.72772082       4.54612858
Si       4.55252000       1.74669000       6.40118000       0.28733400       0.20348600      -1.69136000      -0.22340383       0.22038258      -1.47235952
Si       5.87020000       3.30923000       5.41310000       1.93974000       0.55942400      -1.14043100       1.95181662       0.99379741      -0.79680515
Si       6.68392000       0.09389000       2.07850000      -2.78148600      -1.30329400       2.70552900      -2.54587695      -1.28238207       2.47922929
Si       7.30980000       7.36953000       0.08595000       4.18267400      -0.22507900      -1.67891000       4.25017620      -0.95417651      -1.78339767
Si       8.41387000       7.50606000       2.97540000       5.08859000       1.78741200      -0.88875800       4.93030603       1.97345150      -0.70231565
54
Lattice="8.579999685 0.0 0.0 0.0 8.579999685 0.0 0.0 0.0 8.5799996" Properties=species:S:1:pos:R:3:REF_forces:R:3:MACE_forces:R:3 config_type=Fe34B10Si10 REF_energy=-359.84864784 MACE_energy=-360.26937197303533 pbc="T T T"
Fe       0.39531000       2.37288000       0.87042000       3.27925500       2.43832800      -1.60261100       2.96523618       2.70177338      -1.56352169
Fe       0.75383000       1.65209000       3.11094000       1.30783500      -0.34615400      -0.09267000       0.70282892      -0.62906026       0.27205770
Fe       1.33201000       3.79282000       7.26231000      -2.40668100      -1.18131200       0.32245500      -2.00633564      -0.69879349       0.79070102
Fe       0.64436000       4.41396000       2.97573000       2.42004200      -2.26182600       0.38963900       2.11418413      -2.18908194       0.57063238
Fe       0.14751000       6.42079000       3.51005000      -3.07002100       1.32407200      -2.30638400      -3.00157471       1.11668438      -2.35699870