54
Lattice="8.579999685 0.0 0.0 0.0 8.579999685 0.0 0.0 0.0 8.5799996" Properties=species:S:1:pos:R:3:REF_forces:R:3:MACE_forces:R:3 config_type=Fe34B10Si10 REF_energy=-352.89092233 MACE_energy=-353.2581515088416 pbc="T T T"
Fe       1.46495000       0.71583000       1.12880000       3.73230100      -3.41607500      -3.76209700       3.75296997      -3.50476581      -3.69073594
Fe       0.56244000       2.07917000       1.96452000      -3.31290700       4.06628900       2.54508600      -3.37588725       4.12544860       2.41785076
Fe       0.86636000       2.12990000       5.00906000     -10.85567700      -2.87102900      12.20968700     -10.93590292      -2.93531273      12.17790198
Fe       0.24697000       2.61233000       7.83061000      -0.37811800      -2.03816900      -0.08744800      -0.31868125      -2.07365791       0.12716711
Fe       0.35437000       4.66395000       8.16447000      -1.30300600       1.62250000       0.84662400      -1.36727416       1.67194609       0.81556030
Fe       0.83543000       8.00840000       3.01492000       5.54921000      -2.55787300       0.52513800       5.54676499      -2.64075754       0.44800006
Fe       2.03952000       7.84431000       6.63062000      -4.28706100       1.82495200      -1.68802900      -4.02394905       2.03001021      -1.69001807
Fe       3.34318000       0.11090000       2.96052000      -0.46571400      -0.35056300       0.37864800      -0.47223167      -0.18183019       0.49010361
Fe       3.26317000       2.11539000       1.48699000      -3.47884800      -0.03222100       0.61542300      -3.32093474      -0.28076992       0.22180881
Fe       4.14313000       2.75755000       3.31065000      -0.71378000      -2.73118300       1.93004800      -0.67677830      -2.48491195       1.91307859
Fe       2.55051000       2.67374000       7.19710000      -2.55215900      -0.93589000       1.77261600      -2.32891618      -1.03730467       1.70898070
Fe       3.61327000       2.86500000       5.46497000       1.55763200       0.20514300      -0.56676300       1.46612396       0.32806052      -0.26648567
Fe       2.62400000       4.72550000       1.39174000      -1.08585200      -1.19598700       0.59645400      -1.37191892      -0.91560584       0.71847459
Fe       2.20317000       5.21693000       3.87451000      -3.92870900      -4.38103900      -4.92199500      -3.85388322      -4.36533860      -5.01488726
Fe       3.93082000       4.37819000       8.08226000       1.07616800       0.44807800      -0.99700400       1.04724952       0.26658059      -1.08343705
Fe       2.44961000       7.01753000       1.08943000       0.32119000      -1.55635000       3.27006500       0.46147544      -1.64341955       3.32368986
Fe       3.02500000       6.15780000       5.08193000      -1.08486800       1.64126100       3.95415400      -0.45247183       1.57767809       3.91269076
Fe       5.77712000       0.44616000       0.16142000      -2.43333700       0.07175000       4.13474700      -2.40659930       0.43459554       4.19321595
Fe       5.66964000       0.14892000       2.95259000      -3.67617900       1.90971100       0.12919700      -3.70188533       1.66110905       0.28237715
Fe       5.39484000       2.66317000       1.55162000       4.08183700      -3.39937100       3.88213200       3.95364198      -3.76484309       4.09867473
Fe       5.91309000       3.40423000       8.31953000       8.90196200       5.48305700      -2.72562400       8.69893692       5.51792973      -2.76983174
Fe       4.96126000       4.63305000       3.41410000      -3.60269200      -2.00302700       2.25051900      -3.85440662      -2.25340714       2.39961537
Fe       5.11347000       6.81217000       1.78872000      -0.87770500       0.06714300      -1.61156800      -0.66125248       0.11893352      -1.59329583
Fe       5.00950000       6.45991000       8.24507000      -2.30619500      -0.19808200      -1.52355700      -2.21786250      -0.03959884      -1.66611597
Fe       4.64263000       7.71190000       5.75084000       2.50156800       4.23919200      -1.55456800       2.57194771       4.24689252      -1.66696099
Fe       7.32285000       0.33022000       5.03535000      -0.99210900      -0.59745100       4.73628300      -1.03831295      -0.38875533       4.74148758
Fe       6.75330000       1.32958000       7.05071000       0.53851300       2.01290400       0.36400700       0.47082710       1.87214367       0.34958917
Fe       6.82686000       2.53028000       3.66692000      -0.08907100      -0.12987400      -0.26318300       0.03316404      -0.19748508      -0.24983437
Fe       6.83617000       5.56618000       0.59386000       1.74434500       1.47371700      -3.32847200       1.82111632       1.86610731      -3.44176500
Fe       8.27091000       4.29855000       2.87718000       3.23308900       0.33980500       1.37352500       3.12961544       0.19098659       1.38093417
Fe       6.58774000       4.90718000       4.97515000      -1.87594500       0.58060600      -0.05143700      -2.06927250       0.51791358      -0.63608783
Fe       6.86773000       6.79187000       3.27473000       1.52763600      -2.76254700       0.67579100       1.46325282      -2.45581304       0.34709721
Fe       8.09083000       8.29691000       0.84396000      -4.18921500      -1.95965200       9.56442300      -4.30859219      -2.31144413       9.55655756
Fe       6.62133000       7.67903000       7.47205000      -3.65417600       1.51975600      -3.32990400      -3.96534453       1.32765580      -3.46620923
B        3.45077000       6.81738000       6.75435000       2.04131500      -2.79808300       3.80923700       1.88740223      -2.77505735       3.96902609
B        4.67436000       1.10514000       4.73414000       0.75036200       0.95391600      -0.52852700       0.82652589       0.87831359      -0.40936910
B        6.18153000       2.20088000       5.47737000      -4.49435700      -3.20609500      -2.27763700      -4.66987042      -3.15735621      -2.39387297
B        5.08133000       4.10197000       6.35983000       0.35152900       0.25548900      -0.65354500       0.53558966       0.37576973      -0.62126829
B        4.48663000       4.29393000       1.40792000      -0.27448100       1.04603100       0.21283300      -0.20312643       1.18828227       0.24295915
B        4.96286000       5.88068000       6.14703000       0.60492000      -1.85032800       0.29314600       0.51405510      -1.92230725       0.15438204
B        8.17242000       5.65216000       5.55863000       1.00443800       0.65677900      -0.69824300       0.99928364       0.79509380      -0.30523319
B        7.98743000       6.92663000       6.60530000       5.86774900       2.58695800      -4.05103700       5.78571950       2.33478902      -3.75126086
B        7.10769000       5.72812000       6.91109000      -2.33709700      -3.34606800       1.34633400      -2.12651246      -3.39399438       1.67503843
B        7.81665000       6.81498000       8.33858000       5.04350100      -2.41043400       0.97359300       5.11748456      -2.66260539       0.58987624
Si       0.06983000       0.14925000       7.74742000       4.12649000       2.60901100      -8.87608100       4.04914641       2.61001809      -8.74372348
Si       1.93337000       2.41223000       3.74634000      10.14534600       2.98113100     -12.18526000      10.22992909       3.07068168     -12.00526475
Si       0.75978000       6.02813000       1.69309000      -4.13401100      -0.74920300       1.02787300      -4.14116511      -0.83016606       0.98078683
Si       2.22023000       5.10313000       7.16329000      -1.58663400       1.19675500      -1.89967800      -1.64070305       1.14549591      -1.91121730
Si       3.27754000       8.17117000       8.35443000       4.04667900       4.58101600      -2.24829100       3.93038011       4.58802062      -2.40798822
Si       4.48145000       2.18337000       8.34202000      -5.72220500      -5.96162700      -4.99603400      -5.52082603      -5.96417191      -5.12425980
Si       6.36439000       4.54151000       2.12641000       2.28764700      -2.33178900       1.39384200       2.51681279      -2.11778460       1.34630188
Si       4.52267000       6.51460000       3.75633000       0.42177200       5.22743800       1.25328700       0.11971055       5.30598624       1.34120530
Si       7.68278000       0.22257000       3.11016000      -0.17295300       4.89916800      -3.86478000      -0.26604412       4.81671297      -3.94977130
Si       7.35363000       3.38410000       6.13231000       4.40786200       1.27045000       2.62604800       4.36147972       1.43530917       2.93446222
54
Lattice="8.579999685 0.0 0.0 0.0 8.579999685 0.0 0.0 0.0 8.5799996" Properties=species:S:1:pos:R:3:REF_forces:R:3:MACE_forces:R:3 config_type=Fe34B10Si10 REF_energy=-354.71875992 MACE_energy=-355.35040674524924 pbc="T T T"
Fe       0.43313000       1.19321000       2.96848000       1.47291300       2.99028000       0.61180900       1.47414626       2.93677164       0.32137892
Fe       0.91365000       1.12516000       8.09995000       2.76260400      -2.00335600       1.20968300       2.41654773      -1.99096019       1.07297128
Fe       1.17142000       2.67870000       5.23446000      -1.90323000       6.04651700       0.58026800      -1.75490144       6.11192114       0.42463956
Fe       0.60772000       3.85484000       0.87278000       2.66909500       4.89444800       4.53699300       2.53906944       4.97887604       4.18352280
Fe       1.41565000       3.44858000       3.01161000      -0.29549500       2.03729500      -0.74017400      -0.09331210       1.92112664      -0.68457819
Fe       0.04226000       2.91249000       8.09734000      -3.39897200      -2.84207300      -2.69442200      -2.79293637      -2.87520501      -2.35763303
Fe       1.33282000       7.09057000       5.22634000      -0.45239700      -1.35392500       0.92503500      -0.22476116      -1.51330151       0.96915301
Fe       2.06045000       7.92051000       0.98063000      -3.11321000      -0.30108300      -2.49280600      -3.13783635      -0.40847495      -2.39990940
Fe       2.03627000       8.24295000       3.50701000      -1.42216600       4.38122900       0.88517600      -1.47049468       4.12757607       0.66030259
Fe       0.01253000       8.02686000       7.00667000       2.58679700       0.98610200     -11.80201700       2.44388048       0.91936109     -11.87527646
Fe       3.00353000       0.57289000       6.13981000      -1.03922300       0.18357300       0.93137300      -0.80435465       0.11245372       1.01328888
Fe       3.69949000       2.65196000       7.51811000       2.76433000      -4.34399200      -3.80269000       2.59489073      -4.11329480      -3.68273222
Fe       2.94478000       6.44154000       3.03987000       7.21319500      -3.66655800      -1.17614100       7.03105849      -3.46541914      -1.01866895
Fe       2.94309000       5.75189000       6.64956000      -6.24071800      -0.74678300       3.86021800      -6.47869340      -0.64927635       3.86509293
Fe       3.71160000       8.39321000       1.86324000       2.24845700      -0.43546600       0.28887200       2.21005676      -0.16224521       0.68848462
Fe       4.07810000       8.43915000       4.32840000       2.88035800       1.28304800      -0.49181300       2.85833495       1.37086975      -0.76399314
Fe       5.57499000       0.73262000       6.31633000      -3.12774100      -1.68249800      -0.98058200      -2.84011929      -1.67714084      -0.89985885
Fe       4.70712000       1.94493000       1.65492000      -2.04675700       4.97917500      -3.67899600      -2.13569012       4.76585414      -3.48361535
Fe       4.73401000       4.18392000       1.24748000       0.71501700       1.80608500      -0.06999200       0.70664218       2.02203806      -0.10591868
Fe       4.56687000       4.22266000       4.39618000       0.73801700       3.32591500      -2.10569900       0.49338477       3.15950855      -2.19210587
Fe       4.51224000       4.61167000       7.05684000       2.53211900      -0.41024200       0.53825400       2.97775051      -0.75269960       0.48913879
Fe       6.32808000       6.81945000       4.24288000      -3.20445400      -0.33519400      -1.28892300      -2.80113829      -0.24577286      -1.10936408
Fe       6.22240000       7.17309000       0.16230000      -3.30904600      -2.75215800       1.90373500      -3.50669298      -3.04359695       2.08420534
Fe       4.54224000       7.44382000       7.03838000       0.17895600      -5.02037800      -8.74618400       0.28327502      -5.24274238      -8.93728405
Fe       4.73272000       8.55832000       8.35561000      -0.10588400       8.96287400       6.54083400      -0.19394608       9.47631078       6.21326518
Fe       7.67285000       2.82429000       2.17742000      -2.12886900      -0.76272600      -2.06587500      -2.06425323      -0.81945446      -1.98386452
Fe       6.74071000       1.77406000       4.33655000       0.47479500       0.50025500      -0.42349800       0.07796928       0.45448435      -0.47648312
Fe       7.16362000       1.61896000       6.68131000       5.11373900       1.83737400       0.70818800       4.77549239       1.68478829       0.63689532
Fe       6.73653000       4.13840000       7.84564000       0.19062300       0.32905600       3.59274800       0.11341126       0.49882414       3.63912072
Fe       6.61248000       5.35948000       2.44590000       0.96755600      -0.77403900      -0.47053600       0.84362101      -0.67685241      -0.50830975
Fe       8.39074000       4.95678000       4.82580000       0.50677700       3.21370700       1.22596300       0.59919379       3.11049043       1.09609943
Fe       6.62275000       6.29700000       6.29237000       0.91106900      -0.58785400       1.74696000       0.79736598      -0.47067779       1.60632932
Fe       8.00875000       8.14674000       2.12563000      -1.25903800      -1.94608200      -3.37077000      -0.88835651      -1.94125257      -3.39331909
Fe       7.96861000       8.10559000       4.08816000       1.24434400       0.03207600       4.40361200       0.70051861      -0.00629863       4.50579812
B        3.14587000       1.61638000       2.59818000      -3.96044800      -1.57388800      -2.24367700      -3.97238442      -1.48912496      -2.02420097
B        4.07212000       1.93087000       3.78701000       0.55534200       0.12762300      -3.25123200       0.44374909       0.12055916      -3.20935339
B        2.24412000       1.90783000       4.05913000      -1.80380000      -9.70850100      -5.48536600      -1.84508674      -9.92365270      -5.58376264
B        2.90130000       3.06657000       4.45062000       2.48509300       7.60479000      -1.50334300       2.91771054       7.31508755      -1.51106157
B        2.82587000       3.80138000       5.80651000       0.21675600       2.27927400       3.92227300       0.33435614       2.12921260       3.85625791
B        2.60929000       5.04297000       1.66311000       0.12617300      -0.77075900      -0.46531300      -0.06757877      -0.76110143      -0.38071417
B        2.47198000       4.95014000       4.32601000      -0.76752800      -1.31946700       0.35153300      -0.81211897      -1.21293554       0.32909153
B        2.73354000       7.81887000       7.66829000      -1.47869400      -0.15377200       0.00458000      -1.52983396      -0.17623089       0.18348059
B        5.68071000       2.28134000       7.79544000      -0.95924500       0.41857400       1.11780500      -0.93101440       0.34221298       1.05869092
B        7.77536000       3.70665000       3.76574000      -0.44877700      -1.48394500      -0.38974400      -0.55477347      -1.40412685      -0.03654714
Si       0.79518000       0.92195000       5.77957000      -1.66645900      -4.94136200      -1.10925300      -1.62233013      -5.11065727      -0.94600091
Si       0.88055000       4.20706000       6.73551000       1.15626000       3.58432200      -0.32349000       1.10036986       3.77302332      -0.20085238
Si       1.15025000       6.44729000       2.43826000      -7.77651300      -1.83655100      -1.54918700      -7.90891039      -1.73563165      -1.72131741
Si       2.82820000       3.29548000       0.50208000      -4.05499500       1.58525200       5.32597100      -4.13121595       1.47884800       5.27183818
Si       4.14031000       6.38272000       0.30005000      -2.16949800      -2.44928300       2.57761000      -2.21341825      -2.50162290       2.56207732
Si       3.68345000       6.43010000       5.01209000       3.98893100       0.98565200      -2.13453700       3.85071337       1.18193750      -2.07069179
Si       5.73751000       0.59059000       2.53265000       5.08228400      -4.90021500       2.23852200       5.15920096      -4.92296085       2.49445572
Si       4.51163000       2.47994000       5.36819000       2.60737700      -2.86786400       7.12589500       2.76708574      -2.67943953       6.98686969
Si       6.43436000       3.75222000       5.86206000       1.38008400       0.66155200      -3.64612400       1.58238101       0.79004824      -3.76696806
Si       8.06432000       7.52318000       8.55473000       2.36409700      -3.06603600      11.34847700       2.68397577      -2.81003392      11.11193653
18
Lattice="6.5 0.0 0.0 0.0 6.5 0.0 0.0 0.0 6.5" Properties=species:S:1:pos:R:3:REF_forces:R:3:MACE_forces:R:3 config_type=Fe12B3Si3 REF_energy=-113.87843945 MACE_energy=-113.05227228177597 pbc="T T T"
Fe       5.40234000       5.43492000       1.53729000      -1.39532100       2.04028400       0.71142300      -1.12100540       1.95227525       0.69513992
Fe       2.09750000       2.10361000       0.54730000       2.35673700      -0.33103000       1.27254800       2.52068458      -0.08334673       1.12348290
Fe       2.84360000       1.73250000       3.81271000       2.28004000      -1.18251600      -0.27344700       2.18339178      -1.01694050      -0.16298484
Fe       0.77541000       4.93717000       1.04317000       1.56096300      -3.83372900       1.76362000       1.39258983      -3.58501387       1.49197891
Fe       0.07665000       3.70431000       3.74351000      -0.75952900      -0.39175400      -2.23189700      -1.03697400      -0.43529155      -2.28889005
Fe       4.77171000       3.58949000       4.78220000      -1.99219600      -4.62409700       0.48420500      -1.77655054      -4.58198796       0.41571002
Fe       4.12430000       1.49867000       1.46476000       0.29771700      -2.38794700       0.28396300       0.31303593      -2.65597916       0.11026032
Fe       0.95387000       5.17746000       5.28728000      -0.57085000      -0.50160400      -1.80733600      -0.95202153      -0.70820883      -1.29917694
Fe       1.93602000       3.09888000       2.36598000      -0.08855100       0.43128300      -0.27209000      -0.15307949       0.59633144      -0.42032493
Fe       5.69037000       1.28357000       4.20026000      -0.40866000      -0.49067900       0.18976600      -0.70089826      -0.26786012       0.20514621
Fe       1.94321000       2.86141000       5.39871000      -0.55906500       0.73218900      -1.80086600      -0.58405464       0.77843074      -1.86637019
Fe       4.33122000       5.38124000       5.25469000      -0.73272900       4.56545400       1.52017900      -0.67958853       4.38722963       1.53379487
B        0.37598000       1.64060000       1.21420000      -3.21263000       2.85095800       0.76078000      -3.07700016       2.71506718       0.90121776
B        1.88110000       4.04794000       3.96741000       2.48956600       2.45119300      -0.32261600       2.69214143       2.30620058      -0.35865868
B        3.63878000       0.94242000       5.41981000      -0.01444500       0.67937600       0.95779200       0.15818734       0.82678438       1.07343276
Si       1.19380000       0.26963000       0.19686000       0.54051800       0.24528300      -1.93219100       0.68380157       0.00851290      -1.91677088
Si       4.57825000       3.47658000       1.16117000       0.15934200       1.26766700      -0.81102600       0.19736296       1.43510499      -0.72330756
Si       1.09558000       0.76720000       2.75124000       0.04909300      -1.52033200       1.50719200      -0.06002286      -1.67130837       1.48632041
54
Lattice="8.579999685 0.0 0.0 0.0 8.579999685 0.0 0.0 0.0 8.5799996" Properties=species:S:1:pos:R:3:REF_forces:R:3:MACE_forces:R:3 config_type=Fe34B10Si10 REF_energy=-356.0869274 MACE_energy=-356.88313048645375 pbc="T T T"
Fe       0.92877000       1.08311000       2.12831000      -0.53214900      -1.15432400       0.53007800      -0.68871665      -1.23906777       0.40584653
Fe       1.12794000       0.45096000       7.37327000      -2.86345100       2.18226700       1.45805300      -2.86164780       2.01051820       1.46202691
Fe       0.91289000       3.61082000       1.96264000      -1.66570100       0.50807500      -4.76654600      -1.66072208       0.28068368      -4.76379726
Fe       0.97242000       3.25012000       3.83975000      -0.85629000      -1.23507100      -0.91491200      -1.07322081      -1.19058386      -0.37213005
Fe       1.43574000       3.84332000       5.84621000      -1.94378300      -0.72872400       4.94145300      -2.06837037      -0.52939410       4.68925721
Fe       0.45897000       5.99881000       1.32384000       1.86679900       1.45939200      -0.33976700       1.64494881       1.57846744      -0.17972365
Fe       0.05714000       6.25044000       6.01250000       0.66851500      -0.88142700       1.67028200       0.74597091      -0.75043640       1.78978799
Fe       1.87526000       7.05991000       7.27744000      -5.90957000       6.81146600       5.95768600      -5.76772192       7.20022496       5.93605052
Fe       4.21220000       0.80536000       3.81626000       0.44958900      -1.97725700       0.54591300       0.55979403      -1.90930109       0.44025096
Fe       2.64196000       0.75311000       5.88605000       0.80305000      -0.92688600      -1.50973400       0.60158480      -1.09371970      -1.56941696
Fe       2.51735000       4.27963000       7.86001000      -0.17185400       2.88247300       0.00075600       0.00994317       2.96498068       0.35150286
Fe       2.46175000       4.76211000       4.38544000       2.27245000       6.36429500      -0.60000700       2.23241999       6.35501138      -0.55864653
Fe       3.99132000       4.46692000       6.09268000      -0.21521200      -1.96607600      -0.25853400      -0.22919458      -2.13939568      -0.16489772
Fe       4.03283000       6.20484000       2.50717000       0.32509400      -1.83048700       1.07686200       0.44121874      -1.72849648       1.16677720
Fe       2.62183000       8.12097000       1.25125000      -5.45108600      -1.04608100      -0.88869000      -5.55898228      -1.04107946      -0.55923177
Fe       2.34208000       7.49949000       3.33705000      -1.45221900       0.10179900       1.96325000      -1.27084555       0.22532832       1.58091878
Fe       4.67554000       0.98699000       8.35162000       1.97529500       0.95938300       0.07305200       1.75218044       0.79430649       0.41674057
Fe       4.68615000       2.28426000       1.60336000       6.03713100       4.39249100       1.56082500       6.19321053       4.34912513       1.16147834
Fe       4.95897000       4.28949000       0.91503000       1.24258400       3.77490300      -1.07876200       0.67115434       3.44593873      -1.24437100
Fe       5.62605000       3.84953000       3.25301000      -4.56775200       3.43217100       2.09526400      -4.61380792       3.49324557       1.92597840
Fe       5.63153000       5.70233000       4.67966000       0.04558900       0.36352900      -0.74034800       0.07844640      -0.06790718      -0.60322072
Fe       5.00954000       6.14620000       6.89198000       4.51113600      -2.60361300       1.43664400       4.53359017      -2.41585277       1.37221018
Fe       5.34723000       7.32984000       0.56425000       3.41130600      -7.55812200      -7.44238600       3.33328298      -7.03067688      -7.24895200
Fe       4.57141000       8.20633000       1.67615000      -2.51651100       6.57056000       9.11650700      -2.60760417       6.16373323       8.69157699
Fe       5.67084000       7.83697000       6.02451000      -0.02983000       3.57151200       0.33120700      -0.09318308       3.71182111       0.40233626
Fe       7.65837000       1.05332000       0.64336000       1.95813700       2.93603900      -3.62028800       1.88855186       2.97305677      -3.50317088
Fe       7.23579000       1.49494000       3.62009000       0.88838800      -1.50203300       3.00240400       0.97339248      -1.60129821       3.05012252
Fe       6.96409000       1.59543000       6.70415000       0.40175100      -2.57633900      -0.54943900       0.53064825      -2.52950609      -0.51591382
Fe       6.97946000       3.05325000       2.27831000       3.01329100      -2.85779700      -7.80747400       2.47923164      -2.97698736      -7.21370191
Fe       7.05854000       3.62734000       7.13255000       0.94483300       2.42104600       2.56329500       1.04348377       2.44476669       2.49089625
Fe       7.47490000       4.49325000       0.92243000      -3.13561000       0.06366500       0.11142200      -2.92607118       0.42194861      -0.34011887
Fe       7.76499000       5.40883000       4.05655000       3.42051700      -2.49950500       1.10150300       3.49707254      -2.67069462       1.14808864
Fe       6.91686000       6.16423000       2.38917000      -4.34160700       0.52717700      -3.24358900      -4.29934031       0.64373624      -3.17545169
Fe       7.31773000       7.39473000       4.73130000      -1.41907300       3.06948200       1.38572900      -1.40889300       3.07596180       1.32119027
B        1.63947000       5.44017000       2.85377000      -1.37965300       1.67099600      -0.34434500      -1.44924219       1.76956992      -0.60483181
B        3.47444000       1.29905000       1.69513000      -6.04542900      -7.46227000      -1.52467000      -5.89994408      -7.26322706      -1.18718820
B        2.31673000       1.42955000       3.77944000      -1.85652800      -2.14982900       3.21956500      -1.76305155      -1.97346775       3.49370436
B        3.17088000       0.01260000       8.16689000      -2.14308300      -0.12737100      -3.63430700      -2.07783373       0.08642544      -3.59187691
B        2.48887000       2.23189000       2.44876000      -1.30373000       3.96631200      -0.94871100      -0.87808399       3.89211469      -1.25517862
B        3.55016000       3.21990000       0.17024000       2.13469500      -3.52588700       0.23974700       2.14135055      -3.42974306       0.20773499
B        3.12966000       3.07291000       4.24572000      -6.99085300       0.34377600      -0.16579100      -7.17140754       0.06061514      -0.32082404
B        2.38358000       5.95301000       6.34325000       2.25901800      -8.76611800      -6.31465800       2.25213038      -9.20653123      -6.53986883
B        4.46260000       2.62992000       4.23823000       7.08507900      -1.75449200       0.40993300       7.23085497      -1.73438253       0.46734440
B        7.51183000       3.59374000       3.85724000       1.49621300      -1.20378300       3.39561400       1.51116435      -1.10967545       3.30643018
Si       0.50050000       1.66927000       5.10425000      -1.02554400      -2.67263500       2.61432900      -0.85107859      -2.93436723       2.51630337
Si       0.41923000       4.50138000       8.15701000       0.82744200      -0.47721100      -2.57541600       1.06427819      -0.48411481      -2.80354072
Si       2.90131000       4.25049000       1.93860000       2.71957100       0.04497600      -0.88170100       2.93706791      -0.05391285      -1.12482754
Si       3.74353000       6.85388000       5.19884000      -1.20766000       1.80214700      -2.20114300      -1.09219821       1.95908801      -2.19074352
Si       3.54209000       6.47938000       8.21357000      -0.45014500      -1.75854100       4.24377300      -0.56988580      -2.00591499       4.43575461
Si       4.55252000       1.74669000       6.40118000       0.28733400       0.20348600      -1.69136000       0.28356425       0.18298366      -1.71528540
Si       5.87020000       3.30923000       5.41310000       1.93974000       0.55942400      -1.14043100       1.56929490       0.72179241      -1.15728562
Si       6.68392000       0.09389000       2.07850000      -2.78148600      -1.30329400       2.70552900      -2.47034753      -1.21188415       2.84026127
Si       7.30980000       7.36953000       0.08595000       4.18267400      -0.22507900      -1.67891000       4.12538312      -0.49811539      -1.67841978
Si       8.41387000       7.50606000       2.97540000       5.08859000       1.78741200      -0.88875800       5.02618036       2.01428984      -0.88795473
54
Lattice="8.579999685 0.0 0.0 0.0 8.579999685 0.0 0.0 0.0 8.5799996" Properties=species:S:1:pos:R:3:REF_forces:R:3:MACE_forces:R:3 config_type=Fe34B10Si10 REF_energy=-359.84864784 MACE_energy=-360.31944228833106 pbc="T T T"
Fe       0.39531000       2.37288000       0.87042000       3.27925500       2.43832800      -1.60261100       3.21605796       2.61076851      -1.74742707
Fe       0.75383000       1.65209000       3.11094000       1.30783500      -0.34615400      -0.09267000       1.26599241      -0.78779260       0.21998163
Fe       1.33201000       3.79282000       7.26231000      -2.40668100      -1.18131200       0.32245500      -2.52966386      -1.05602306       0.18779879
Fe       0.64436000       4.41396000       2.97573000       2.42004200      -2.26182600       0.38963900       2.47403706      -2.05532058       0.22238982
Fe       0.14751000       6.42079000       3.51005000      -3.07002100       1.32407200      -2.30638400      -3.11220197       1.37407173      -2.52393141