54
Lattice="8.579999685 0.0 0.0 0.0 8.579999685 0.0 0.0 0.0 8.5799996" Properties=species:S:1:pos:R:3:REF_forces:R:3:MACE_forces:R:3 config_type=Fe34B10Si10 REF_energy=-352.89092233 MACE_energy=-353.29216782266906 pbc="T T T"
Fe       1.46495000       0.71583000       1.12880000       3.73230100      -3.41607500      -3.76209700       3.66795142      -3.43804967      -3.53918923
Fe       0.56244000       2.07917000       1.96452000      -3.31290700       4.06628900       2.54508600      -3.34592868       4.06150533       2.34932024
Fe       0.86636000       2.12990000       5.00906000     -10.85567700      -2.87102900      12.20968700     -10.88024632      -2.94447849      12.20616976
Fe       0.24697000       2.61233000       7.83061000      -0.37811800      -2.03816900      -0.08744800      -0.37201583      -2.06359644       0.09123245
Fe       0.35437000       4.66395000       8.16447000      -1.30300600       1.62250000       0.84662400      -1.36051239       1.76624109       0.78560205
Fe       0.83543000       8.00840000       3.01492000       5.54921000      -2.55787300       0.52513800       5.60089068      -2.64196247       0.46628544
Fe       2.03952000       7.84431000       6.63062000      -4.28706100       1.82495200      -1.68802900      -4.07209606       2.03488958      -1.71734137
Fe       3.34318000       0.11090000       2.96052000      -0.46571400      -0.35056300       0.37864800      -0.49632427      -0.17055863       0.45570768
Fe       3.26317000       2.11539000       1.48699000      -3.47884800      -0.03222100       0.61542300      -3.30226316      -0.25839936       0.25085976
Fe       4.14313000       2.75755000       3.31065000      -0.71378000      -2.73118300       1.93004800      -0.70123480      -2.44334106       1.88105680
Fe       2.55051000       2.67374000       7.19710000      -2.55215900      -0.93589000       1.77261600      -2.27323817      -1.02861678       1.69713662
Fe       3.61327000       2.86500000       5.46497000       1.55763200       0.20514300      -0.56676300       1.45879248       0.29915778      -0.28702929
Fe       2.62400000       4.72550000       1.39174000      -1.08585200      -1.19598700       0.59645400      -1.33743025      -0.97019361       0.67943344
Fe       2.20317000       5.21693000       3.87451000      -3.92870900      -4.38103900      -4.92199500      -3.90446532      -4.32459180      -5.05554557
Fe       3.93082000       4.37819000       8.08226000       1.07616800       0.44807800      -0.99700400       0.96012947       0.24110884      -1.00931013
Fe       2.44961000       7.01753000       1.08943000       0.32119000      -1.55635000       3.27006500       0.44175006      -1.60491723       3.34976791
Fe       3.02500000       6.15780000       5.08193000      -1.08486800       1.64126100       3.95415400      -0.34450517       1.69405704       4.01852417
Fe       5.77712000       0.44616000       0.16142000      -2.43333700       0.07175000       4.13474700      -2.42231580       0.41825028       4.17709437
Fe       5.66964000       0.14892000       2.95259000      -3.67617900       1.90971100       0.12919700      -3.69499622       1.66199253       0.30951610
Fe       5.39484000       2.66317000       1.55162000       4.08183700      -3.39937100       3.88213200       3.98696284      -3.76729298       4.14384655
Fe       5.91309000       3.40423000       8.31953000       8.90196200       5.48305700      -2.72562400       8.72904972       5.41194668      -2.75694383
Fe       4.96126000       4.63305000       3.41410000      -3.60269200      -2.00302700       2.25051900      -3.89089090      -2.34750983       2.39015764
Fe       5.11347000       6.81217000       1.78872000      -0.87770500       0.06714300      -1.61156800      -0.72560506       0.12603302      -1.64225510
Fe       5.00950000       6.45991000       8.24507000      -2.30619500      -0.19808200      -1.52355700      -2.20805150      -0.02842495      -1.74893834
Fe       4.64263000       7.71190000       5.75084000       2.50156800       4.23919200      -1.55456800       2.55899448       4.27724623      -1.60200065
Fe       7.32285000       0.33022000       5.03535000      -0.99210900      -0.59745100       4.73628300      -0.97284622      -0.35672674       4.70208140
Fe       6.75330000       1.32958000       7.05071000       0.53851300       2.01290400       0.36400700       0.48841210       1.87061789       0.32219671
Fe       6.82686000       2.53028000       3.66692000      -0.08907100      -0.12987400      -0.26318300       0.03716631      -0.19497529      -0.21112275
Fe       6.83617000       5.56618000       0.59386000       1.74434500       1.47371700      -3.32847200       1.78845263       1.76259526      -3.48708890
Fe       8.27091000       4.29855000       2.87718000       3.23308900       0.33980500       1.37352500       3.09046523       0.18358700       1.32593828
Fe       6.58774000       4.90718000       4.97515000      -1.87594500       0.58060600      -0.05143700      -2.07664587       0.58945547      -0.51081936
Fe       6.86773000       6.79187000       3.27473000       1.52763600      -2.76254700       0.67579100       1.47206896      -2.45042955       0.36506341
Fe       8.09083000       8.29691000       0.84396000      -4.18921500      -1.95965200       9.56442300      -4.20255461      -2.24564209       9.63770944
Fe       6.62133000       7.67903000       7.47205000      -3.65417600       1.51975600      -3.32990400      -3.97634285       1.30259527      -3.47045762
B        3.45077000       6.81738000       6.75435000       2.04131500      -2.79808300       3.80923700       1.96390716      -2.86950460       3.91547366
B        4.67436000       1.10514000       4.73414000       0.75036200       0.95391600      -0.52852700       0.79681142       0.94402277      -0.42605341
B        6.18153000       2.20088000       5.47737000      -4.49435700      -3.20609500      -2.27763700      -4.63255172      -3.15861202      -2.45450679
B        5.08133000       4.10197000       6.35983000       0.35152900       0.25548900      -0.65354500       0.49055999       0.29181134      -0.57235481
B        4.48663000       4.29393000       1.40792000      -0.27448100       1.04603100       0.21283300      -0.23500892       1.22618881       0.22497376
B        4.96286000       5.88068000       6.14703000       0.60492000      -1.85032800       0.29314600       0.46776758      -1.86112600       0.12628622
B        8.17242000       5.65216000       5.55863000       1.00443800       0.65677900      -0.69824300       1.06318772       0.71747565      -0.23089533
B        7.98743000       6.92663000       6.60530000       5.86774900       2.58695800      -4.05103700       5.76990339       2.29520312      -3.57160257
B        7.10769000       5.72812000       6.91109000      -2.33709700      -3.34606800       1.34633400      -2.12671661      -3.41815861       1.51099961
B        7.81665000       6.81498000       8.33858000       5.04350100      -2.41043400       0.97359300       5.00176072      -2.58815609       0.51043895
Si       0.06983000       0.14925000       7.74742000       4.12649000       2.60901100      -8.87608100       3.97465502       2.58692874      -8.80814170
Si       1.93337000       2.41223000       3.74634000      10.14534600       2.98113100     -12.18526000      10.22318874       3.04946778     -12.01432886
Si       0.75978000       6.02813000       1.69309000      -4.13401100      -0.74920300       1.02787300      -4.13354277      -0.86719526       0.96468499
Si       2.22023000       5.10313000       7.16329000      -1.58663400       1.19675500      -1.89967800      -1.66522482       1.16761482      -1.84567544
Si       3.27754000       8.17117000       8.35443000       4.04667900       4.58101600      -2.24829100       3.91825736       4.52184113      -2.37598322
Si       4.48145000       2.18337000       8.34202000      -5.72220500      -5.96162700      -4.99603400      -5.45555378      -5.91069174      -5.15361587
Si       6.36439000       4.54151000       2.12641000       2.28764700      -2.33178900       1.39384200       2.56764161      -2.14456396       1.26503792
Si       4.52267000       6.51460000       3.75633000       0.42177200       5.22743800       1.25328700       0.12393958       5.31107207       1.34422671
Si       7.68278000       0.22257000       3.11016000      -0.17295300       4.89916800      -3.86478000      -0.23265054       4.85680845      -3.93229455
Si       7.35363000       3.38410000       6.13231000       4.40786200       1.27045000       2.62604800       4.39909197       1.42800126       2.95667264
54
Lattice="8.579999685 0.0 0.0 0.0 8.579999685 0.0 0.0 0.0 8.5799996" Properties=species:S:1:pos:R:3:REF_forces:R:3:MACE_forces:R:3 config_type=Fe34B10Si10 REF_energy=-354.71875992 MACE_energy=-355.389860404228 pbc="T T T"
Fe       0.43313000       1.19321000       2.96848000       1.47291300       2.99028000       0.61180900       1.45778424       2.89473498       0.37619633
Fe       0.91365000       1.12516000       8.09995000       2.76260400      -2.00335600       1.20968300       2.38592385      -1.85392903       1.07427622
Fe       1.17142000       2.67870000       5.23446000      -1.90323000       6.04651700       0.58026800      -1.69320720       6.14177787       0.36987918
Fe       0.60772000       3.85484000       0.87278000       2.66909500       4.89444800       4.53699300       2.64107495       5.10046444       4.13155190
Fe       1.41565000       3.44858000       3.01161000      -0.29549500       2.03729500      -0.74017400      -0.00014396       1.92711447      -0.65919034
Fe       0.04226000       2.91249000       8.09734000      -3.39897200      -2.84207300      -2.69442200      -2.78102621      -3.00824654      -2.44569289
Fe       1.33282000       7.09057000       5.22634000      -0.45239700      -1.35392500       0.92503500      -0.23285734      -1.47690574       0.94958947
Fe       2.06045000       7.92051000       0.98063000      -3.11321000      -0.30108300      -2.49280600      -3.27366376      -0.43266138      -2.48580191
Fe       2.03627000       8.24295000       3.50701000      -1.42216600       4.38122900       0.88517600      -1.52151644       4.10546202       0.63429186
Fe       0.01253000       8.02686000       7.00667000       2.58679700       0.98610200     -11.80201700       2.46755938       0.88015808     -11.94285505
Fe       3.00353000       0.57289000       6.13981000      -1.03922300       0.18357300       0.93137300      -0.77430524       0.14384002       0.98785748
Fe       3.69949000       2.65196000       7.51811000       2.76433000      -4.34399200      -3.80269000       2.60644344      -4.12607262      -3.67601715
Fe       2.94478000       6.44154000       3.03987000       7.21319500      -3.66655800      -1.17614100       6.98993172      -3.46268667      -0.99031413
Fe       2.94309000       5.75189000       6.64956000      -6.24071800      -0.74678300       3.86021800      -6.43128553      -0.64032992       3.99878940
Fe       3.71160000       8.39321000       1.86324000       2.24845700      -0.43546600       0.28887200       2.35136848      -0.09455589       0.68109917
Fe       4.07810000       8.43915000       4.32840000       2.88035800       1.28304800      -0.49181300       2.84994032       1.31629514      -0.77986438
Fe       5.57499000       0.73262000       6.31633000      -3.12774100      -1.68249800      -0.98058200      -2.78896849      -1.73048876      -0.92404362
Fe       4.70712000       1.94493000       1.65492000      -2.04675700       4.97917500      -3.67899600      -2.13274105       4.78797190      -3.42489553
Fe       4.73401000       4.18392000       1.24748000       0.71501700       1.80608500      -0.06999200       0.71572541       1.97627438      -0.12805021
Fe       4.56687000       4.22266000       4.39618000       0.73801700       3.32591500      -2.10569900       0.51565859       3.16467674      -2.15020196
Fe       4.51224000       4.61167000       7.05684000       2.53211900      -0.41024200       0.53825400       2.96329533      -0.73634753       0.48408052
Fe       6.32808000       6.81945000       4.24288000      -3.20445400      -0.33519400      -1.28892300      -2.80584233      -0.23499680      -1.07125975
Fe       6.22240000       7.17309000       0.16230000      -3.30904600      -2.75215800       1.90373500      -3.50086724      -2.96397322       2.03953946
Fe       4.54224000       7.44382000       7.03838000       0.17895600      -5.02037800      -8.74618400       0.30796701      -5.28444441      -8.86979661
Fe       4.73272000       8.55832000       8.35561000      -0.10588400       8.96287400       6.54083400      -0.31717204       9.35064494       6.19578342
Fe       7.67285000       2.82429000       2.17742000      -2.12886900      -0.76272600      -2.06587500      -2.12370133      -0.82767843      -1.97974512
Fe       6.74071000       1.77406000       4.33655000       0.47479500       0.50025500      -0.42349800       0.07839611       0.40866787      -0.45157588
Fe       7.16362000       1.61896000       6.68131000       5.11373900       1.83737400       0.70818800       4.70112524       1.62528330       0.63436302
Fe       6.73653000       4.13840000       7.84564000       0.19062300       0.32905600       3.59274800       0.17153609       0.47156348       3.61236648
Fe       6.61248000       5.35948000       2.44590000       0.96755600      -0.77403900      -0.47053600       0.85212354      -0.66587990      -0.45028328
Fe       8.39074000       4.95678000       4.82580000       0.50677700       3.21370700       1.22596300       0.58858862       3.14367029       1.08373642
Fe       6.62275000       6.29700000       6.29237000       0.91106900      -0.58785400       1.74696000       0.82817611      -0.48705107       1.60436422
Fe       8.00875000       8.14674000       2.12563000      -1.25903800      -1.94608200      -3.37077000      -0.86136030      -1.92084270      -3.43168507
Fe       7.96861000       8.10559000       4.08816000       1.24434400       0.03207600       4.40361200       0.72290412       0.04959698       4.56745179
B        3.14587000       1.61638000       2.59818000      -3.96044800      -1.57388800      -2.24367700      -3.98868651      -1.49023404      -2.02681288
B        4.07212000       1.93087000       3.78701000       0.55534200       0.12762300      -3.25123200       0.39359110       0.17221511      -3.20850611
B        2.24412000       1.90783000       4.05913000      -1.80380000      -9.70850100      -5.48536600      -1.87616469     -10.02052327      -5.62903512
B        2.90130000       3.06657000       4.45062000       2.48509300       7.60479000      -1.50334300       2.84132575       7.25339412      -1.51076440
B        2.82587000       3.80138000       5.80651000       0.21675600       2.27927400       3.92227300       0.27678218       2.16532289       3.92126212
B        2.60929000       5.04297000       1.66311000       0.12617300      -0.77075900      -0.46531300      -0.03127186      -0.82010364      -0.44992399
B        2.47198000       4.95014000       4.32601000      -0.76752800      -1.31946700       0.35153300      -0.80628271      -1.21947053       0.41670820
B        2.73354000       7.81887000       7.66829000      -1.47869400      -0.15377200       0.00458000      -1.52925855      -0.16999594       0.22039596
B        5.68071000       2.28134000       7.79544000      -0.95924500       0.41857400       1.11780500      -0.96607352       0.38022662       1.07106545
B        7.77536000       3.70665000       3.76574000      -0.44877700      -1.48394500      -0.38974400      -0.54380796      -1.40651079      -0.07642439
Si       0.79518000       0.92195000       5.77957000      -1.66645900      -4.94136200      -1.10925300      -1.61767746      -5.02060306      -0.95960672
Si       0.88055000       4.20706000       6.73551000       1.15626000       3.58432200      -0.32349000       1.11437764       3.69643710      -0.23018596
Si       1.15025000       6.44729000       2.43826000      -7.77651300      -1.83655100      -1.54918700      -7.82617527      -1.71264579      -1.70476204
Si       2.82820000       3.29548000       0.50208000      -4.05499500       1.58525200       5.32597100      -4.07135279       1.40760759       5.24452047
Si       4.14031000       6.38272000       0.30005000      -2.16949800      -2.44928300       2.57761000      -2.30251879      -2.40735037       2.47840765
Si       3.68345000       6.43010000       5.01209000       3.98893100       0.98565200      -2.13453700       3.85695696       1.16629518      -2.15261722
Si       5.73751000       0.59059000       2.53265000       5.08228400      -4.90021500       2.23852200       5.10312352      -4.86339722       2.49858948
Si       4.51163000       2.47994000       5.36819000       2.60737700      -2.86786400       7.12589500       2.79363174      -2.60676193       7.07814171
Si       6.43436000       3.75222000       5.86206000       1.38008400       0.66155200      -3.64612400       1.50893555       0.73011889      -3.74485517
Si       8.06432000       7.52318000       8.55473000       2.36409700      -3.06603600      11.34847700       2.71368162      -2.77512720      11.20045949
18
Lattice="6.5 0.0 0.0 0.0 6.5 0.0 0.0 0.0 6.5" Properties=species:S:1:pos:R:3:REF_forces:R:3:MACE_forces:R:3 config_type=Fe12B3Si3 REF_energy=-113.87843945 MACE_energy=-113.07641262643313 pbc="T T T"
Fe       5.40234000       5.43492000       1.53729000      -1.39532100       2.04028400       0.71142300      -1.01147428       1.84029017       0.69893730
Fe       2.09750000       2.10361000       0.54730000       2.35673700      -0.33103000       1.27254800       2.54597751      -0.09707338       1.31737542
Fe       2.84360000       1.73250000       3.81271000       2.28004000      -1.18251600      -0.27344700       2.22196554      -0.98257492      -0.21136902
Fe       0.77541000       4.93717000       1.04317000       1.56096300      -3.83372900       1.76362000       1.25098130      -3.40076148       1.57850047
Fe       0.07665000       3.70431000       3.74351000      -0.75952900      -0.39175400      -2.23189700      -1.18131250      -0.48086219      -2.26114734
Fe       4.77171000       3.58949000       4.78220000      -1.99219600      -4.62409700       0.48420500      -1.64704136      -4.51243667       0.38201981
Fe       4.12430000       1.49867000       1.46476000       0.29771700      -2.38794700       0.28396300       0.27441533      -2.65869124       0.10683660
Fe       0.95387000       5.17746000       5.28728000      -0.57085000      -0.50160400      -1.80733600      -0.93766052      -0.67586451      -1.35858695
Fe       1.93602000       3.09888000       2.36598000      -0.08855100       0.43128300      -0.27209000      -0.22038026       0.49534165      -0.59523920
Fe       5.69037000       1.28357000       4.20026000      -0.40866000      -0.49067900       0.18976600      -0.82287491      -0.31167229       0.23913714
Fe       1.94321000       2.86141000       5.39871000      -0.55906500       0.73218900      -1.80086600      -0.47278157       0.68156470      -1.93655270
Fe       4.33122000       5.38124000       5.25469000      -0.73272900       4.56545400       1.52017900      -0.56384710       4.34979492       1.55476749
B        0.37598000       1.64060000       1.21420000      -3.21263000       2.85095800       0.76078000      -3.00592374       2.70866481       0.84576939
B        1.88110000       4.04794000       3.96741000       2.48956600       2.45119300      -0.32261600       2.67222170       2.41462034      -0.28028918
B        3.63878000       0.94242000       5.41981000      -0.01444500       0.67937600       0.95779200       0.13258935       0.81613370       1.10185010
Si       1.19380000       0.26963000       0.19686000       0.54051800       0.24528300      -1.93219100       0.63980038      -0.00978115      -1.84618139
Si       4.57825000       3.47658000       1.16117000       0.15934200       1.26766700      -0.81102600       0.18514596       1.49424775      -0.78792323
Si       1.09558000       0.76720000       2.75124000       0.04909300      -1.52033200       1.50719200      -0.05980083      -1.67094019       1.45209529
54
Lattice="8.579999685 0.0 0.0 0.0 8.579999685 0.0 0.0 0.0 8.5799996" Properties=species:S:1:pos:R:3:REF_forces:R:3:MACE_forces:R:3 config_type=Fe34B10Si10 REF_energy=-356.0869274 MACE_energy=-356.9593586075491 pbc="T T T"
Fe       0.92877000       1.08311000       2.12831000      -0.53214900      -1.15432400       0.53007800      -0.71540690      -1.19639453       0.40350894
Fe       1.12794000       0.45096000       7.37327000      -2.86345100       2.18226700       1.45805300      -2.83098439       1.97412303       1.44576045
Fe       0.91289000       3.61082000       1.96264000      -1.66570100       0.50807500      -4.76654600      -1.70618583       0.36538787      -4.80228334
Fe       0.97242000       3.25012000       3.83975000      -0.85629000      -1.23507100      -0.91491200      -1.08688470      -1.23604041      -0.19066667
Fe       1.43574000       3.84332000       5.84621000      -1.94378300      -0.72872400       4.94145300      -2.07831330      -0.61887068       4.70373736
Fe       0.45897000       5.99881000       1.32384000       1.86679900       1.45939200      -0.33976700       1.63662974       1.53387383      -0.16703537
Fe       0.05714000       6.25044000       6.01250000       0.66851500      -0.88142700       1.67028200       0.70258492      -0.77137568       1.72437754
Fe       1.87526000       7.05991000       7.27744000      -5.90957000       6.81146600       5.95768600      -5.75202090       7.22204821       5.98810577
Fe       4.21220000       0.80536000       3.81626000       0.44958900      -1.97725700       0.54591300       0.49310857      -1.89710812       0.43375669
Fe       2.64196000       0.75311000       5.88605000       0.80305000      -0.92688600      -1.50973400       0.52291119      -1.04168849      -1.56595964
Fe       2.51735000       4.27963000       7.86001000      -0.17185400       2.88247300       0.00075600      -0.00086862       2.95256937       0.18552872
Fe       2.46175000       4.76211000       4.38544000       2.27245000       6.36429500      -0.60000700       2.18396723       6.34407210      -0.69730831
Fe       3.99132000       4.46692000       6.09268000      -0.21521200      -1.96607600      -0.25853400      -0.17292330      -2.25892295      -0.20085221
Fe       4.03283000       6.20484000       2.50717000       0.32509400      -1.83048700       1.07686200       0.41691334      -1.76621138       1.08416719
Fe       2.62183000       8.12097000       1.25125000      -5.45108600      -1.04608100      -0.88869000      -5.51247662      -1.12217816      -0.64632613
Fe       2.34208000       7.49949000       3.33705000      -1.45221900       0.10179900       1.96325000      -1.25114185       0.18288126       1.63806070
Fe       4.67554000       0.98699000       8.35162000       1.97529500       0.95938300       0.07305200       1.66119927       0.85285249       0.32381112
Fe       4.68615000       2.28426000       1.60336000       6.03713100       4.39249100       1.56082500       6.24583685       4.32665355       1.16280371
Fe       4.95897000       4.28949000       0.91503000       1.24258400       3.77490300      -1.07876200       0.79480198       3.56055612      -1.24941641
Fe       5.62605000       3.84953000       3.25301000      -4.56775200       3.43217100       2.09526400      -4.54491126       3.55150233       1.90117728
Fe       5.63153000       5.70233000       4.67966000       0.04558900       0.36352900      -0.74034800       0.01456873      -0.05033187      -0.59732815
Fe       5.00954000       6.14620000       6.89198000       4.51113600      -2.60361300       1.43664400       4.57786698      -2.38002653       1.43752677
Fe       5.34723000       7.32984000       0.56425000       3.41130600      -7.55812200      -7.44238600       3.46317400      -7.02580189      -7.23744456
Fe       4.57141000       8.20633000       1.67615000      -2.51651100       6.57056000       9.11650700      -2.68440638       6.06803126       8.69693886
Fe       5.67084000       7.83697000       6.02451000      -0.02983000       3.57151200       0.33120700      -0.05413338       3.62558724       0.34630488
Fe       7.65837000       1.05332000       0.64336000       1.95813700       2.93603900      -3.62028800       1.88717721       2.93332323      -3.54936200
Fe       7.23579000       1.49494000       3.62009000       0.88838800      -1.50203300       3.00240400       0.95027570      -1.50785141       3.07824495
Fe       6.96409000       1.59543000       6.70415000       0.40175100      -2.57633900      -0.54943900       0.52069056      -2.54576475      -0.56789412
Fe       6.97946000       3.05325000       2.27831000       3.01329100      -2.85779700      -7.80747400       2.46384304      -2.95093117      -7.27255352
Fe       7.05854000       3.62734000       7.13255000       0.94483300       2.42104600       2.56329500       1.03639525       2.48253526       2.50105403
Fe       7.47490000       4.49325000       0.92243000      -3.13561000       0.06366500       0.11142200      -2.89444726       0.46804585      -0.20621025
Fe       7.76499000       5.40883000       4.05655000       3.42051700      -2.49950500       1.10150300       3.49517671      -2.65752614       1.11614187
Fe       6.91686000       6.16423000       2.38917000      -4.34160700       0.52717700      -3.24358900      -4.32112692       0.59224766      -3.20466850
Fe       7.31773000       7.39473000       4.73130000      -1.41907300       3.06948200       1.38572900      -1.47058625       3.01509436       1.39552998
B        1.63947000       5.44017000       2.85377000      -1.37965300       1.67099600      -0.34434500      -1.51542900       1.78143764      -0.59566493
B        3.47444000       1.29905000       1.69513000      -6.04542900      -7.46227000      -1.52467000      -5.89462205      -7.16670860      -1.12058526
B        2.31673000       1.42955000       3.77944000      -1.85652800      -2.14982900       3.21956500      -1.71077687      -1.99087150       3.44245119
B        3.17088000       0.01260000       8.16689000      -2.14308300      -0.12737100      -3.63430700      -1.99062198       0.11510776      -3.57755586
B        2.48887000       2.23189000       2.44876000      -1.30373000       3.96631200      -0.94871100      -0.89851789       3.83480197      -1.29375657
B        3.55016000       3.21990000       0.17024000       2.13469500      -3.52588700       0.23974700       2.15155365      -3.43370093       0.30476365
B        3.12966000       3.07291000       4.24572000      -6.99085300       0.34377600      -0.16579100      -7.11552017       0.14071814      -0.18119550
B        2.38358000       5.95301000       6.34325000       2.25901800      -8.76611800      -6.31465800       2.17020238      -9.23776300      -6.58523127
B        4.46260000       2.62992000       4.23823000       7.08507900      -1.75449200       0.40993300       7.19326109      -1.85126446       0.45472443
B        7.51183000       3.59374000       3.85724000       1.49621300      -1.20378300       3.39561400       1.54668686      -1.08537492       3.23347709
Si       0.50050000       1.66927000       5.10425000      -1.02554400      -2.67263500       2.61432900      -0.79432252      -2.91369077       2.61398189
Si       0.41923000       4.50138000       8.15701000       0.82744200      -0.47721100      -2.57541600       1.06496053      -0.40309137      -2.84696156
Si       2.90131000       4.25049000       1.93860000       2.71957100       0.04497600      -0.88170100       2.90106948      -0.01611422      -1.08070587
Si       3.74353000       6.85388000       5.19884000      -1.20766000       1.80214700      -2.20114300      -1.06876666       2.06252682      -2.14761427
Si       3.54209000       6.47938000       8.21357000      -0.45014500      -1.75854100       4.24377300      -0.53978876      -2.00506334       4.44375772
Si       4.55252000       1.74669000       6.40118000       0.28733400       0.20348600      -1.69136000       0.24862137       0.13856803      -1.63426216
Si       5.87020000       3.30923000       5.41310000       1.93974000       0.55942400      -1.14043100       1.57001226       0.78192737      -1.07737926
Si       6.68392000       0.09389000       2.07850000      -2.78148600      -1.30329400       2.70552900      -2.46048364      -1.24019124       2.81641431
Si       7.30980000       7.36953000       0.08595000       4.18267400      -0.22507900      -1.67891000       4.11916620      -0.51187352      -1.67773128
Si       8.41387000       7.50606000       2.97540000       5.08859000       1.78741200      -0.88875800       5.03301230       1.97625931      -0.90215413
54
Lattice="8.579999685 0.0 0.0 0.0 8.579999685 0.0 0.0 0.0 8.5799996" Properties=species:S:1:pos:R:3:REF_forces:R:3:MACE_forces:R:3 config_type=Fe34B10Si10 REF_energy=-359.84864784 MACE_energy=-360.28288372320213 pbc="T T T"
Fe       0.39531000       2.37288000       0.87042000       3.27925500       2.43832800      -1.60261100       3.21369178       2.69574712      -1.76998610
Fe       0.75383000       1.65209000       3.11094000       1.30783500      -0.34615400      -0.09267000       1.28485389      -0.86649969       0.11944119
Fe       1.33201000       3.79282000       7.26231000      -2.40668100      -1.18131200       0.32245500      -2.57017563      -1.10755879       0.25240668
Fe       0.64436000       4.41396000       2.97573000       2.42004200      -2.26182600       0.38963900       2.49386148      -2.09699253       0.28758465
Fe       0.14751000       6.42079000       3.51005000      -3.07002100       1.32407200      -2.30638400      -3.09459549       1.30904706      -2.43546069