54
Lattice="8.579999685 0.0 0.0 0.0 8.579999685 0.0 0.0 0.0 8.5799996" Properties=species:S:1:pos:R:3:REF_forces:R:3:MACE_forces:R:3 config_type=Fe34B10Si10 REF_energy=-352.89092233 MACE_energy=-353.08124469400764 pbc="T T T"
Fe       1.46495000       0.71583000       1.12880000       3.73230100      -3.41607500      -3.76209700       3.57874018      -3.41761705      -3.43397044
Fe       0.56244000       2.07917000       1.96452000      -3.31290700       4.06628900       2.54508600      -3.33756082       4.04389142       2.32387475
Fe       0.86636000       2.12990000       5.00906000     -10.85567700      -2.87102900      12.20968700     -10.90442513      -2.93614747      12.20849503
Fe       0.24697000       2.61233000       7.83061000      -0.37811800      -2.03816900      -0.08744800      -0.36668854      -2.02301554       0.06602078
Fe       0.35437000       4.66395000       8.16447000      -1.30300600       1.62250000       0.84662400      -1.35942210       1.77162880       0.75759166
Fe       0.83543000       8.00840000       3.01492000       5.54921000      -2.55787300       0.52513800       5.65026426      -2.62284754       0.47986618
Fe       2.03952000       7.84431000       6.63062000      -4.28706100       1.82495200      -1.68802900      -4.10730940       2.00712409      -1.77479567
Fe       3.34318000       0.11090000       2.96052000      -0.46571400      -0.35056300       0.37864800      -0.49224193      -0.16745510       0.46362185
Fe       3.26317000       2.11539000       1.48699000      -3.47884800      -0.03222100       0.61542300      -3.32916843      -0.24210590       0.26547799
Fe       4.14313000       2.75755000       3.31065000      -0.71378000      -2.73118300       1.93004800      -0.65846930      -2.45326896       1.87125579
Fe       2.55051000       2.67374000       7.19710000      -2.55215900      -0.93589000       1.77261600      -2.20255467      -1.01807578       1.67419907
Fe       3.61327000       2.86500000       5.46497000       1.55763200       0.20514300      -0.56676300       1.44560489       0.27795439      -0.27576419
Fe       2.62400000       4.72550000       1.39174000      -1.08585200      -1.19598700       0.59645400      -1.32612629      -1.00826114       0.66968978
Fe       2.20317000       5.21693000       3.87451000      -3.92870900      -4.38103900      -4.92199500      -3.96258248      -4.38538373      -5.15111161
Fe       3.93082000       4.37819000       8.08226000       1.07616800       0.44807800      -0.99700400       0.91145014       0.20532261      -0.99343370
Fe       2.44961000       7.01753000       1.08943000       0.32119000      -1.55635000       3.27006500       0.43350348      -1.57047487       3.36192440
Fe       3.02500000       6.15780000       5.08193000      -1.08486800       1.64126100       3.95415400      -0.20282906       1.89783556       4.22405022
Fe       5.77712000       0.44616000       0.16142000      -2.43333700       0.07175000       4.13474700      -2.39377879       0.40662834       4.17796533
Fe       5.66964000       0.14892000       2.95259000      -3.67617900       1.90971100       0.12919700      -3.68145670       1.63959628       0.33841418
Fe       5.39484000       2.66317000       1.55162000       4.08183700      -3.39937100       3.88213200       4.00707439      -3.75474881       4.18914330
Fe       5.91309000       3.40423000       8.31953000       8.90196200       5.48305700      -2.72562400       8.77202880       5.37910846      -2.76522251
Fe       4.96126000       4.63305000       3.41410000      -3.60269200      -2.00302700       2.25051900      -3.86466945      -2.39656994       2.44710003
Fe       5.11347000       6.81217000       1.78872000      -0.87770500       0.06714300      -1.61156800      -0.74695964       0.15352979      -1.70075817
Fe       5.00950000       6.45991000       8.24507000      -2.30619500      -0.19808200      -1.52355700      -2.20324531      -0.00316305      -1.82183538
Fe       4.64263000       7.71190000       5.75084000       2.50156800       4.23919200      -1.55456800       2.55267007       4.29394091      -1.64012205
Fe       7.32285000       0.33022000       5.03535000      -0.99210900      -0.59745100       4.73628300      -0.92348913      -0.34109601       4.68942594
Fe       6.75330000       1.32958000       7.05071000       0.53851300       2.01290400       0.36400700       0.49684532       1.85151206       0.33517972
Fe       6.82686000       2.53028000       3.66692000      -0.08907100      -0.12987400      -0.26318300       0.01438444      -0.17888119      -0.19028160
Fe       6.83617000       5.56618000       0.59386000       1.74434500       1.47371700      -3.32847200       1.75706886       1.71635999      -3.47838573
Fe       8.27091000       4.29855000       2.87718000       3.23308900       0.33980500       1.37352500       3.07659995       0.16453935       1.33461766
Fe       6.58774000       4.90718000       4.97515000      -1.87594500       0.58060600      -0.05143700      -2.02437784       0.61005729      -0.46435700
Fe       6.86773000       6.79187000       3.27473000       1.52763600      -2.76254700       0.67579100       1.45760924      -2.42377414       0.35858774
Fe       8.09083000       8.29691000       0.84396000      -4.18921500      -1.95965200       9.56442300      -4.12894315      -2.18388801       9.67263763
Fe       6.62133000       7.67903000       7.47205000      -3.65417600       1.51975600      -3.32990400      -4.08261978       1.28639109      -3.47666842
B        3.45077000       6.81738000       6.75435000       2.04131500      -2.79808300       3.80923700       1.95657034      -2.94075413       3.89831266
B        4.67436000       1.10514000       4.73414000       0.75036200       0.95391600      -0.52852700       0.79244106       0.99663768      -0.41602931
B        6.18153000       2.20088000       5.47737000      -4.49435700      -3.20609500      -2.27763700      -4.64402357      -3.16232994      -2.52140797
B        5.08133000       4.10197000       6.35983000       0.35152900       0.25548900      -0.65354500       0.47463207       0.21960849      -0.55803205
B        4.48663000       4.29393000       1.40792000      -0.27448100       1.04603100       0.21283300      -0.24307284       1.25905827       0.21386331
B        4.96286000       5.88068000       6.14703000       0.60492000      -1.85032800       0.29314600       0.42522466      -1.81777968       0.12968913
B        8.17242000       5.65216000       5.55863000       1.00443800       0.65677900      -0.69824300       1.06566182       0.59659111      -0.24271664
B        7.98743000       6.92663000       6.60530000       5.86774900       2.58695800      -4.05103700       5.77617794       2.32956742      -3.40053970
B        7.10769000       5.72812000       6.91109000      -2.33709700      -3.34606800       1.34633400      -2.12915837      -3.43981923       1.46723777
B        7.81665000       6.81498000       8.33858000       5.04350100      -2.41043400       0.97359300       4.96732706      -2.56660204       0.42005129
Si       0.06983000       0.14925000       7.74742000       4.12649000       2.60901100      -8.87608100       3.93775578       2.51647245      -8.81877886
Si       1.93337000       2.41223000       3.74634000      10.14534600       2.98113100     -12.18526000      10.18468980       3.02544201     -12.00548831
Si       0.75978000       6.02813000       1.69309000      -4.13401100      -0.74920300       1.02787300      -4.12990171      -0.88980988       0.92947114
Si       2.22023000       5.10313000       7.16329000      -1.58663400       1.19675500      -1.89967800      -1.65091057       1.18059080      -1.86264544
Si       3.27754000       8.17117000       8.35443000       4.04667900       4.58101600      -2.24829100       3.88391300       4.48253518      -2.35011016
Si       4.48145000       2.18337000       8.34202000      -5.72220500      -5.96162700      -4.99603400      -5.46630251      -5.85828201      -5.19998324
Si       6.36439000       4.54151000       2.12641000       2.28764700      -2.33178900       1.39384200       2.60798374      -2.17140775       1.19800017
Si       4.52267000       6.51460000       3.75633000       0.42177200       5.22743800       1.25328700       0.12224857       5.33905264       1.36063665
Si       7.68278000       0.22257000       3.11016000      -0.17295300       4.89916800      -3.86478000      -0.20093350       4.87461156      -3.95807406
Si       7.35363000       3.38410000       6.13231000       4.40786200       1.27045000       2.62604800       4.41475109       1.44797086       2.97411106
54
Lattice="8.579999685 0.0 0.0 0.0 8.579999685 0.0 0.0 0.0 8.5799996" Properties=species:S:1:pos:R:3:REF_forces:R:3:MACE_forces:R:3 config_type=Fe34B10Si10 REF_energy=-354.71875992 MACE_energy=-355.1500094285908 pbc="T T T"
Fe       0.43313000       1.19321000       2.96848000       1.47291300       2.99028000       0.61180900       1.51409282       2.90613550       0.41448844
Fe       0.91365000       1.12516000       8.09995000       2.76260400      -2.00335600       1.20968300       2.40306228      -1.75115179       1.15449031
Fe       1.17142000       2.67870000       5.23446000      -1.90323000       6.04651700       0.58026800      -1.64092426       6.12558750       0.34726594
Fe       0.60772000       3.85484000       0.87278000       2.66909500       4.89444800       4.53699300       2.69322076       5.08351856       4.11317782
Fe       1.41565000       3.44858000       3.01161000      -0.29549500       2.03729500      -0.74017400      -0.01310299       1.94794762      -0.73696055
Fe       0.04226000       2.91249000       8.09734000      -3.39897200      -2.84207300      -2.69442200      -2.81293608      -2.99778485      -2.49604594
Fe       1.33282000       7.09057000       5.22634000      -0.45239700      -1.35392500       0.92503500      -0.22466405      -1.44075595       0.93042946
Fe       2.06045000       7.92051000       0.98063000      -3.11321000      -0.30108300      -2.49280600      -3.28073259      -0.43670563      -2.53151123
Fe       2.03627000       8.24295000       3.50701000      -1.42216600       4.38122900       0.88517600      -1.54907715       4.09489543       0.63285219
Fe       0.01253000       8.02686000       7.00667000       2.58679700       0.98610200     -11.80201700       2.49919686       0.86190121     -12.13030885
Fe       3.00353000       0.57289000       6.13981000      -1.03922300       0.18357300       0.93137300      -0.77157082       0.15867464       0.97788491
Fe       3.69949000       2.65196000       7.51811000       2.76433000      -4.34399200      -3.80269000       2.59811551      -4.14736112      -3.74036898
Fe       2.94478000       6.44154000       3.03987000       7.21319500      -3.66655800      -1.17614100       7.01180918      -3.42946965      -1.00502978
Fe       2.94309000       5.75189000       6.64956000      -6.24071800      -0.74678300       3.86021800      -6.44215290      -0.67223724       4.05515861
Fe       3.71160000       8.39321000       1.86324000       2.24845700      -0.43546600       0.28887200       2.44433174      -0.05525679       0.68665287
Fe       4.07810000       8.43915000       4.32840000       2.88035800       1.28304800      -0.49181300       2.85443691       1.29471876      -0.82710764
Fe       5.57499000       0.73262000       6.31633000      -3.12774100      -1.68249800      -0.98058200      -2.75415890      -1.76722158      -0.93531291
Fe       4.70712000       1.94493000       1.65492000      -2.04675700       4.97917500      -3.67899600      -2.09717240       4.71488005      -3.43654568
Fe       4.73401000       4.18392000       1.24748000       0.71501700       1.80608500      -0.06999200       0.70632386       1.96364567      -0.14547747
Fe       4.56687000       4.22266000       4.39618000       0.73801700       3.32591500      -2.10569900       0.46844134       3.19906088      -2.09284451
Fe       4.51224000       4.61167000       7.05684000       2.53211900      -0.41024200       0.53825400       2.94047877      -0.67745680       0.48452563
Fe       6.32808000       6.81945000       4.24288000      -3.20445400      -0.33519400      -1.28892300      -2.78075301      -0.23071650      -1.09123145
Fe       6.22240000       7.17309000       0.16230000      -3.30904600      -2.75215800       1.90373500      -3.45046205      -2.96650890       2.02102495
Fe       4.54224000       7.44382000       7.03838000       0.17895600      -5.02037800      -8.74618400       0.34922033      -5.26242316      -8.85905062
Fe       4.73272000       8.55832000       8.35561000      -0.10588400       8.96287400       6.54083400      -0.40204201       9.27756927       6.14564809
Fe       7.67285000       2.82429000       2.17742000      -2.12886900      -0.76272600      -2.06587500      -2.14874811      -0.78991207      -1.94555819
Fe       6.74071000       1.77406000       4.33655000       0.47479500       0.50025500      -0.42349800       0.05538976       0.39574534      -0.42372989
Fe       7.16362000       1.61896000       6.68131000       5.11373900       1.83737400       0.70818800       4.66460875       1.56536279       0.61512900
Fe       6.73653000       4.13840000       7.84564000       0.19062300       0.32905600       3.59274800       0.17354337       0.45778393       3.58016618
Fe       6.61248000       5.35948000       2.44590000       0.96755600      -0.77403900      -0.47053600       0.87651907      -0.67426791      -0.39574539
Fe       8.39074000       4.95678000       4.82580000       0.50677700       3.21370700       1.22596300       0.52373188       3.17104741       1.09865941
Fe       6.62275000       6.29700000       6.29237000       0.91106900      -0.58785400       1.74696000       0.83050217      -0.50205874       1.59866980
Fe       8.00875000       8.14674000       2.12563000      -1.25903800      -1.94608200      -3.37077000      -0.88708038      -1.83313678      -3.42409430
Fe       7.96861000       8.10559000       4.08816000       1.24434400       0.03207600       4.40361200       0.72500351       0.01486687       4.58751654
B        3.14587000       1.61638000       2.59818000      -3.96044800      -1.57388800      -2.24367700      -3.97733837      -1.46117122      -1.99702229
B        4.07212000       1.93087000       3.78701000       0.55534200       0.12762300      -3.25123200       0.34198076       0.11003667      -3.28154059
B        2.24412000       1.90783000       4.05913000      -1.80380000      -9.70850100      -5.48536600      -1.89779215     -10.12811418      -5.60547346
B        2.90130000       3.06657000       4.45062000       2.48509300       7.60479000      -1.50334300       2.86348369       7.27323249      -1.49888808
B        2.82587000       3.80138000       5.80651000       0.21675600       2.27927400       3.92227300       0.22789554       2.27734859       4.01646802
B        2.60929000       5.04297000       1.66311000       0.12617300      -0.77075900      -0.46531300       0.00482324      -0.85708708      -0.47186152
B        2.47198000       4.95014000       4.32601000      -0.76752800      -1.31946700       0.35153300      -0.78416322      -1.20485138       0.49078598
B        2.73354000       7.81887000       7.66829000      -1.47869400      -0.15377200       0.00458000      -1.56194759      -0.15999986       0.23505130
B        5.68071000       2.28134000       7.79544000      -0.95924500       0.41857400       1.11780500      -0.97917154       0.41421570       1.10681410
B        7.77536000       3.70665000       3.76574000      -0.44877700      -1.48394500      -0.38974400      -0.52551526      -1.44614632      -0.10111596
Si       0.79518000       0.92195000       5.77957000      -1.66645900      -4.94136200      -1.10925300      -1.65073209      -4.96734153      -0.98631641
Si       0.88055000       4.20706000       6.73551000       1.15626000       3.58432200      -0.32349000       1.09949406       3.63397079      -0.21839181
Si       1.15025000       6.44729000       2.43826000      -7.77651300      -1.83655100      -1.54918700      -7.77703062      -1.74951255      -1.69984698
Si       2.82820000       3.29548000       0.50208000      -4.05499500       1.58525200       5.32597100      -4.04649905       1.34472028       5.25806872
Si       4.14031000       6.38272000       0.30005000      -2.16949800      -2.44928300       2.57761000      -2.35626390      -2.37065294       2.43225123
Si       3.68345000       6.43010000       5.01209000       3.98893100       0.98565200      -2.13453700       3.87003974       1.17576624      -2.20425284
Si       5.73751000       0.59059000       2.53265000       5.08228400      -4.90021500       2.23852200       5.10727861      -4.82986028       2.52731467
Si       4.51163000       2.47994000       5.36819000       2.60737700      -2.86786400       7.12589500       2.81822442      -2.56562698       7.12354535
Si       6.43436000       3.75222000       5.86206000       1.38008400       0.66155200      -3.64612400       1.49460281       0.68929339      -3.71154221
Si       8.06432000       7.52318000       8.55473000       2.36409700      -3.06603600      11.34847700       2.65217973      -2.77713580      11.35913598
18
Lattice="6.5 0.0 0.0 0.0 6.5 0.0 0.0 0.0 6.5" Properties=species:S:1:pos:R:3:REF_forces:R:3:MACE_forces:R:3 config_type=Fe12B3Si3 REF_energy=-113.87843945 MACE_energy=-112.97070215450734 pbc="T T T"
Fe       5.40234000       5.43492000       1.53729000      -1.39532100       2.04028400       0.71142300      -1.03248790       1.81756437       0.69727416
Fe       2.09750000       2.10361000       0.54730000       2.35673700      -0.33103000       1.27254800       2.58608546      -0.17704323       1.46886737
Fe       2.84360000       1.73250000       3.81271000       2.28004000      -1.18251600      -0.27344700       2.29870028      -1.03309680      -0.18068998
Fe       0.77541000       4.93717000       1.04317000       1.56096300      -3.83372900       1.76362000       1.18328646      -3.38006554       1.65353433
Fe       0.07665000       3.70431000       3.74351000      -0.75952900      -0.39175400      -2.23189700      -1.28145895      -0.47683038      -2.23591946
Fe       4.77171000       3.58949000       4.78220000      -1.99219600      -4.62409700       0.48420500      -1.60618492      -4.52821356       0.38430802
Fe       4.12430000       1.49867000       1.46476000       0.29771700      -2.38794700       0.28396300       0.21382789      -2.69112028       0.13389909
Fe       0.95387000       5.17746000       5.28728000      -0.57085000      -0.50160400      -1.80733600      -0.94029272      -0.60947922      -1.38584483
Fe       1.93602000       3.09888000       2.36598000      -0.08855100       0.43128300      -0.27209000      -0.19327672       0.45102512      -0.74651379
Fe       5.69037000       1.28357000       4.20026000      -0.40866000      -0.49067900       0.18976600      -0.88293405      -0.34868893       0.19912531
Fe       1.94321000       2.86141000       5.39871000      -0.55906500       0.73218900      -1.80086600      -0.42124122       0.68204293      -1.97428633
Fe       4.33122000       5.38124000       5.25469000      -0.73272900       4.56545400       1.52017900      -0.51648317       4.37958047       1.60495234
B        0.37598000       1.64060000       1.21420000      -3.21263000       2.85095800       0.76078000      -2.88292163       2.67706709       0.71477809
B        1.88110000       4.04794000       3.96741000       2.48956600       2.45119300      -0.32261600       2.65542046       2.44648466      -0.24014735
B        3.63878000       0.94242000       5.41981000      -0.01444500       0.67937600       0.95779200       0.07959668       0.80738947       1.05845287
Si       1.19380000       0.26963000       0.19686000       0.54051800       0.24528300      -1.93219100       0.60425832       0.09134077      -1.77429782
Si       4.57825000       3.47658000       1.16117000       0.15934200       1.26766700      -0.81102600       0.16634077       1.54140982      -0.85428952
Si       1.09558000       0.76720000       2.75124000       0.04909300      -1.52033200       1.50719200      -0.03023506      -1.64936675       1.47679752
54
Lattice="8.579999685 0.0 0.0 0.0 8.579999685 0.0 0.0 0.0 8.5799996" Properties=species:S:1:pos:R:3:REF_forces:R:3:MACE_forces:R:3 config_type=Fe34B10Si10 REF_energy=-356.0869274 MACE_energy=-356.8177514473171 pbc="T T T"
Fe       0.92877000       1.08311000       2.12831000      -0.53214900      -1.15432400       0.53007800      -0.74894916      -1.16184282       0.39329502
Fe       1.12794000       0.45096000       7.37327000      -2.86345100       2.18226700       1.45805300      -2.79917586       1.95840323       1.39573397
Fe       0.91289000       3.61082000       1.96264000      -1.66570100       0.50807500      -4.76654600      -1.78735891       0.39777881      -4.84061977
Fe       0.97242000       3.25012000       3.83975000      -0.85629000      -1.23507100      -0.91491200      -1.12787295      -1.27393027      -0.11954225
Fe       1.43574000       3.84332000       5.84621000      -1.94378300      -0.72872400       4.94145300      -2.09090842      -0.68401066       4.82035959
Fe       0.45897000       5.99881000       1.32384000       1.86679900       1.45939200      -0.33976700       1.63424392       1.48917567      -0.18546639
Fe       0.05714000       6.25044000       6.01250000       0.66851500      -0.88142700       1.67028200       0.63586615      -0.76235727       1.65994264
Fe       1.87526000       7.05991000       7.27744000      -5.90957000       6.81146600       5.95768600      -5.72382583       7.30470363       6.01034616
Fe       4.21220000       0.80536000       3.81626000       0.44958900      -1.97725700       0.54591300       0.43190997      -1.86607354       0.38509525
Fe       2.64196000       0.75311000       5.88605000       0.80305000      -0.92688600      -1.50973400       0.47706074      -1.02486142      -1.51950390
Fe       2.51735000       4.27963000       7.86001000      -0.17185400       2.88247300       0.00075600      -0.00243114       2.90210745       0.12876124
Fe       2.46175000       4.76211000       4.38544000       2.27245000       6.36429500      -0.60000700       2.22728984       6.40831211      -0.80127962
Fe       3.99132000       4.46692000       6.09268000      -0.21521200      -1.96607600      -0.25853400      -0.18250075      -2.30811425      -0.19823888
Fe       4.03283000       6.20484000       2.50717000       0.32509400      -1.83048700       1.07686200       0.40222361      -1.76650481       1.03960097
Fe       2.62183000       8.12097000       1.25125000      -5.45108600      -1.04608100      -0.88869000      -5.49240248      -1.15092523      -0.64061610
Fe       2.34208000       7.49949000       3.33705000      -1.45221900       0.10179900       1.96325000      -1.28866336       0.16869595       1.64437716
Fe       4.67554000       0.98699000       8.35162000       1.97529500       0.95938300       0.07305200       1.67603701       0.90268410       0.28097251
Fe       4.68615000       2.28426000       1.60336000       6.03713100       4.39249100       1.56082500       6.24573145       4.31097969       1.10470033
Fe       4.95897000       4.28949000       0.91503000       1.24258400       3.77490300      -1.07876200       0.86728475       3.60799224      -1.23034592
Fe       5.62605000       3.84953000       3.25301000      -4.56775200       3.43217100       2.09526400      -4.51740857       3.53046617       1.89511172
Fe       5.63153000       5.70233000       4.67966000       0.04558900       0.36352900      -0.74034800       0.03038707      -0.02987188      -0.57809948
Fe       5.00954000       6.14620000       6.89198000       4.51113600      -2.60361300       1.43664400       4.57942938      -2.34749124       1.43553983
Fe       5.34723000       7.32984000       0.56425000       3.41130600      -7.55812200      -7.44238600       3.55910839      -7.03699175      -7.30700809
Fe       4.57141000       8.20633000       1.67615000      -2.51651100       6.57056000       9.11650700      -2.74276429       6.02578556       8.75971530
Fe       5.67084000       7.83697000       6.02451000      -0.02983000       3.57151200       0.33120700       0.00208419       3.55518500       0.32281807
Fe       7.65837000       1.05332000       0.64336000       1.95813700       2.93603900      -3.62028800       1.87668263       2.86758198      -3.57443630
Fe       7.23579000       1.49494000       3.62009000       0.88838800      -1.50203300       3.00240400       0.92108306      -1.44391226       3.09619616
Fe       6.96409000       1.59543000       6.70415000       0.40175100      -2.57633900      -0.54943900       0.53786730      -2.52801955      -0.61084438
Fe       6.97946000       3.05325000       2.27831000       3.01329100      -2.85779700      -7.80747400       2.47186385      -2.96445477      -7.29339252
Fe       7.05854000       3.62734000       7.13255000       0.94483300       2.42104600       2.56329500       1.04089860       2.48210272       2.52013690
Fe       7.47490000       4.49325000       0.92243000      -3.13561000       0.06366500       0.11142200      -2.86685617       0.51929473      -0.11663597
Fe       7.76499000       5.40883000       4.05655000       3.42051700      -2.49950500       1.10150300       3.49097474      -2.60877579       1.14653169
Fe       6.91686000       6.16423000       2.38917000      -4.34160700       0.52717700      -3.24358900      -4.34099540       0.52793863      -3.22225124
Fe       7.31773000       7.39473000       4.73130000      -1.41907300       3.06948200       1.38572900      -1.51364858       2.94756422       1.45307802
B        1.63947000       5.44017000       2.85377000      -1.37965300       1.67099600      -0.34434500      -1.48690156       1.77937420      -0.54140686
B        3.47444000       1.29905000       1.69513000      -6.04542900      -7.46227000      -1.52467000      -5.88973011      -7.09604144      -1.01869218
B        2.31673000       1.42955000       3.77944000      -1.85652800      -2.14982900       3.21956500      -1.67285355      -1.97233605       3.41293651
B        3.17088000       0.01260000       8.16689000      -2.14308300      -0.12737100      -3.63430700      -1.99586777       0.09931421      -3.58698723
B        2.48887000       2.23189000       2.44876000      -1.30373000       3.96631200      -0.94871100      -0.89307352       3.80227218      -1.29367964
B        3.55016000       3.21990000       0.17024000       2.13469500      -3.52588700       0.23974700       2.09689484      -3.39360503       0.31010202
B        3.12966000       3.07291000       4.24572000      -6.99085300       0.34377600      -0.16579100      -7.03248259       0.16370159      -0.14066465
B        2.38358000       5.95301000       6.34325000       2.25901800      -8.76611800      -6.31465800       2.15097118      -9.29772518      -6.56252403
B        4.46260000       2.62992000       4.23823000       7.08507900      -1.75449200       0.40993300       7.16558218      -1.91205392       0.43839740
B        7.51183000       3.59374000       3.85724000       1.49621300      -1.20378300       3.39561400       1.55761997      -1.04786903       3.20581876
Si       0.50050000       1.66927000       5.10425000      -1.02554400      -2.67263500       2.61432900      -0.77511964      -2.92743575       2.68125932
Si       0.41923000       4.50138000       8.15701000       0.82744200      -0.47721100      -2.57541600       1.08517657      -0.41465479      -2.91425796
Si       2.90131000       4.25049000       1.93860000       2.71957100       0.04497600      -0.88170100       2.87305423      -0.00769940      -1.09147115
Si       3.74353000       6.85388000       5.19884000      -1.20766000       1.80214700      -2.20114300      -1.05378020       2.07190813      -2.10805568
Si       3.54209000       6.47938000       8.21357000      -0.45014500      -1.75854100       4.24377300      -0.53744388      -2.04019375       4.42403492
Si       4.55252000       1.74669000       6.40118000       0.28733400       0.20348600      -1.69136000       0.20030873       0.10998632      -1.57329463
Si       5.87020000       3.30923000       5.41310000       1.93974000       0.55942400      -1.14043100       1.57745132       0.82177921      -1.08955082
Si       6.68392000       0.09389000       2.07850000      -2.78148600      -1.30329400       2.70552900      -2.41304910      -1.22087959       2.77943931
Si       7.30980000       7.36953000       0.08595000       4.18267400      -0.22507900      -1.67891000       4.12178146      -0.48516757      -1.69040933
Si       8.41387000       7.50606000       2.97540000       5.08859000       1.78741200      -0.88875800       5.03919663       2.01871130      -0.89502580
54
Lattice="8.579999685 0.0 0.0 0.0 8.579999685 0.0 0.0 0.0 8.5799996" Properties=species:S:1:pos:R:3:REF_forces:R:3:MACE_forces:R:3 config_type=Fe34B10Si10 REF_energy=-359.84864784 MACE_energy=-359.95497709426724 pbc="T T T"
Fe       0.39531000       2.37288000       0.87042000       3.27925500       2.43832800      -1.60261100       3.20647879       2.69870055      -1.73320211
Fe       0.75383000       1.65209000       3.11094000       1.30783500      -0.34615400      -0.09267000       1.29417792      -0.89158530       0.12536121
Fe       1.33201000       3.79282000       7.26231000      -2.40668100      -1.18131200       0.32245500      -2.60997492      -1.12616859       0.31455388
Fe       0.64436000       4.41396000       2.97573000       2.42004200      -2.26182600       0.38963900       2.48090318      -2.04407781       0.35509615
Fe       0.14751000       6.42079000       3.51005000      -3.07002100       1.32407200      -2.30638400      -3.02986125       1.24632632      -2.31819801