54
Lattice="8.579999685 0.0 0.0 0.0 8.579999685 0.0 0.0 0.0 8.5799996" Properties=species:S:1:pos:R:3:REF_forces:R:3:MACE_forces:R:3 config_type=Fe34B10Si10 REF_energy=-352.89092233 MACE_energy=-353.2431329853893 pbc="T T T"
Fe       1.46495000       0.71583000       1.12880000       3.73230100      -3.41607500      -3.76209700       3.63122680      -3.43131532      -3.49253663
Fe       0.56244000       2.07917000       1.96452000      -3.31290700       4.06628900       2.54508600      -3.34345753       4.05540433       2.33886361
Fe       0.86636000       2.12990000       5.00906000     -10.85567700      -2.87102900      12.20968700     -10.88010612      -2.94286381      12.20544732
Fe       0.24697000       2.61233000       7.83061000      -0.37811800      -2.03816900      -0.08744800      -0.37534404      -2.04313603       0.07933471
Fe       0.35437000       4.66395000       8.16447000      -1.30300600       1.62250000       0.84662400      -1.35644348       1.77669282       0.76907624
Fe       0.83543000       8.00840000       3.01492000       5.54921000      -2.55787300       0.52513800       5.61723194      -2.63092377       0.47460462
Fe       2.03952000       7.84431000       6.63062000      -4.28706100       1.82495200      -1.68802900      -4.09316766       2.02430945      -1.73743645
Fe       3.34318000       0.11090000       2.96052000      -0.46571400      -0.35056300       0.37864800      -0.49821273      -0.16669042       0.45342916
Fe       3.26317000       2.11539000       1.48699000      -3.47884800      -0.03222100       0.61542300      -3.30525119      -0.24729246       0.26130113
Fe       4.14313000       2.75755000       3.31065000      -0.71378000      -2.73118300       1.93004800      -0.69081316      -2.44485226       1.87936301
Fe       2.55051000       2.67374000       7.19710000      -2.55215900      -0.93589000       1.77261600      -2.23537831      -1.02545521       1.68859621
Fe       3.61327000       2.86500000       5.46497000       1.55763200       0.20514300      -0.56676300       1.45467424       0.28480241      -0.29033784
Fe       2.62400000       4.72550000       1.39174000      -1.08585200      -1.19598700       0.59645400      -1.32925949      -0.98512630       0.67223393
Fe       2.20317000       5.21693000       3.87451000      -3.92870900      -4.38103900      -4.92199500      -3.93940217      -4.34614880      -5.10228011
Fe       3.93082000       4.37819000       8.08226000       1.07616800       0.44807800      -0.99700400       0.93747154       0.22627453      -0.99772154
Fe       2.44961000       7.01753000       1.08943000       0.32119000      -1.55635000       3.27006500       0.44090647      -1.58693371       3.35138477
Fe       3.02500000       6.15780000       5.08193000      -1.08486800       1.64126100       3.95415400      -0.28495061       1.78559289       4.10925769
Fe       5.77712000       0.44616000       0.16142000      -2.43333700       0.07175000       4.13474700      -2.41256624       0.41036091       4.17420209
Fe       5.66964000       0.14892000       2.95259000      -3.67617900       1.90971100       0.12919700      -3.68371215       1.65324508       0.32209686
Fe       5.39484000       2.66317000       1.55162000       4.08183700      -3.39937100       3.88213200       3.99049299      -3.76253909       4.15966398
Fe       5.91309000       3.40423000       8.31953000       8.90196200       5.48305700      -2.72562400       8.74384598       5.38525100      -2.76235710
Fe       4.96126000       4.63305000       3.41410000      -3.60269200      -2.00302700       2.25051900      -3.88346271      -2.37522709       2.40755378
Fe       5.11347000       6.81217000       1.78872000      -0.87770500       0.06714300      -1.61156800      -0.73690661       0.13661686      -1.67314218
Fe       5.00950000       6.45991000       8.24507000      -2.30619500      -0.19808200      -1.52355700      -2.20881488      -0.02167881      -1.77967251
Fe       4.64263000       7.71190000       5.75084000       2.50156800       4.23919200      -1.55456800       2.55596586       4.28720293      -1.61255670
Fe       7.32285000       0.33022000       5.03535000      -0.99210900      -0.59745100       4.73628300      -0.94681616      -0.34721732       4.69073792
Fe       6.75330000       1.32958000       7.05071000       0.53851300       2.01290400       0.36400700       0.48753299       1.86216878       0.32711135
Fe       6.82686000       2.53028000       3.66692000      -0.08907100      -0.12987400      -0.26318300       0.02971123      -0.18658123      -0.19477006
Fe       6.83617000       5.56618000       0.59386000       1.74434500       1.47371700      -3.32847200       1.77299151       1.73522997      -3.48217359
Fe       8.27091000       4.29855000       2.87718000       3.23308900       0.33980500       1.37352500       3.08083143       0.17691476       1.32427858
Fe       6.58774000       4.90718000       4.97515000      -1.87594500       0.58060600      -0.05143700      -2.06047588       0.59819237      -0.48403756
Fe       6.86773000       6.79187000       3.27473000       1.52763600      -2.76254700       0.67579100       1.46788195      -2.43624620       0.36207732
Fe       8.09083000       8.29691000       0.84396000      -4.18921500      -1.95965200       9.56442300      -4.16417477      -2.21677253       9.64512074
Fe       6.62133000       7.67903000       7.47205000      -3.65417600       1.51975600      -3.32990400      -4.00796122       1.29462132      -3.46957813
B        3.45077000       6.81738000       6.75435000       2.04131500      -2.79808300       3.80923700       1.96786383      -2.90022281       3.90665906
B        4.67436000       1.10514000       4.73414000       0.75036200       0.95391600      -0.52852700       0.79354656       0.96981425      -0.42184249
B        6.18153000       2.20088000       5.47737000      -4.49435700      -3.20609500      -2.27763700      -4.63336749      -3.15587260      -2.48806429
B        5.08133000       4.10197000       6.35983000       0.35152900       0.25548900      -0.65354500       0.48341642       0.25191608      -0.55801753
B        4.48663000       4.29393000       1.40792000      -0.27448100       1.04603100       0.21283300      -0.23819466       1.23879269       0.22037358
B        4.96286000       5.88068000       6.14703000       0.60492000      -1.85032800       0.29314600       0.45129401      -1.83062214       0.12497708
B        8.17242000       5.65216000       5.55863000       1.00443800       0.65677900      -0.69824300       1.07775069       0.66724703      -0.23358451
B        7.98743000       6.92663000       6.60530000       5.86774900       2.58695800      -4.05103700       5.77372446       2.30880553      -3.48911894
B        7.10769000       5.72812000       6.91109000      -2.33709700      -3.34606800       1.34633400      -2.13264902      -3.43604758       1.48827709
B        7.81665000       6.81498000       8.33858000       5.04350100      -2.41043400       0.97359300       4.97748490      -2.57753836       0.46943176
Si       0.06983000       0.14925000       7.74742000       4.12649000       2.60901100      -8.87608100       3.95615203       2.55490993      -8.81202126
Si       1.93337000       2.41223000       3.74634000      10.14534600       2.98113100     -12.18526000      10.20236923       3.03839341     -12.01056083
Si       0.75978000       6.02813000       1.69309000      -4.13401100      -0.74920300       1.02787300      -4.13245051      -0.88107692       0.94975902
Si       2.22023000       5.10313000       7.16329000      -1.58663400       1.19675500      -1.89967800      -1.66334070       1.16818600      -1.84329291
Si       3.27754000       8.17117000       8.35443000       4.04667900       4.58101600      -2.24829100       3.89594364       4.50036694      -2.36063273
Si       4.48145000       2.18337000       8.34202000      -5.72220500      -5.96162700      -4.99603400      -5.45264072      -5.88095877      -5.16535574
Si       6.36439000       4.54151000       2.12641000       2.28764700      -2.33178900       1.39384200       2.58843522      -2.15038654       1.22462669
Si       4.52267000       6.51460000       3.75633000       0.42177200       5.22743800       1.25328700       0.12333943       5.32000235       1.35207618
Si       7.68278000       0.22257000       3.11016000      -0.17295300       4.89916800      -3.86478000      -0.22031192       4.86179778      -3.93296805
Si       7.35363000       3.38410000       6.13231000       4.40786200       1.27045000       2.62604800       4.40754679       1.43661369       2.96214421
54
Lattice="8.579999685 0.0 0.0 0.0 8.579999685 0.0 0.0 0.0 8.5799996" Properties=species:S:1:pos:R:3:REF_forces:R:3:MACE_forces:R:3 config_type=Fe34B10Si10 REF_energy=-354.71875992 MACE_energy=-355.34383221735 pbc="T T T"
Fe       0.43313000       1.19321000       2.96848000       1.47291300       2.99028000       0.61180900       1.47754796       2.89326604       0.39377530
Fe       0.91365000       1.12516000       8.09995000       2.76260400      -2.00335600       1.20968300       2.38713519      -1.80382399       1.10691283
Fe       1.17142000       2.67870000       5.23446000      -1.90323000       6.04651700       0.58026800      -1.66947821       6.12574347       0.36058694
Fe       0.60772000       3.85484000       0.87278000       2.66909500       4.89444800       4.53699300       2.66935681       5.09672459       4.11162041
Fe       1.41565000       3.44858000       3.01161000      -0.29549500       2.03729500      -0.74017400       0.00809320       1.92960672      -0.68789945
Fe       0.04226000       2.91249000       8.09734000      -3.39897200      -2.84207300      -2.69442200      -2.77930846      -3.00472931      -2.46010701
Fe       1.33282000       7.09057000       5.22634000      -0.45239700      -1.35392500       0.92503500      -0.23428939      -1.45840061       0.94244941
Fe       2.06045000       7.92051000       0.98063000      -3.11321000      -0.30108300      -2.49280600      -3.28342599      -0.43708211      -2.49694727
Fe       2.03627000       8.24295000       3.50701000      -1.42216600       4.38122900       0.88517600      -1.53658327       4.10060180       0.62954511
Fe       0.01253000       8.02686000       7.00667000       2.58679700       0.98610200     -11.80201700       2.47938029       0.86721293     -12.00980454
Fe       3.00353000       0.57289000       6.13981000      -1.03922300       0.18357300       0.93137300      -0.77533202       0.15146546       0.98027770
Fe       3.69949000       2.65196000       7.51811000       2.76433000      -4.34399200      -3.80269000       2.60289605      -4.13395555      -3.69310302
Fe       2.94478000       6.44154000       3.03987000       7.21319500      -3.66655800      -1.17614100       6.99416152      -3.44704528      -0.98874466
Fe       2.94309000       5.75189000       6.64956000      -6.24071800      -0.74678300       3.86021800      -6.43381242      -0.64905517       4.02419798
Fe       3.71160000       8.39321000       1.86324000       2.24845700      -0.43546600       0.28887200       2.38841166      -0.07018720       0.68190813
Fe       4.07810000       8.43915000       4.32840000       2.88035800       1.28304800      -0.49181300       2.84929535       1.30409257      -0.80328425
Fe       5.57499000       0.73262000       6.31633000      -3.12774100      -1.68249800      -0.98058200      -2.77333716      -1.74858286      -0.92822182
Fe       4.70712000       1.94493000       1.65492000      -2.04675700       4.97917500      -3.67899600      -2.11074187       4.76002772      -3.42530796
Fe       4.73401000       4.18392000       1.24748000       0.71501700       1.80608500      -0.06999200       0.71014074       1.96418927      -0.13806715
Fe       4.56687000       4.22266000       4.39618000       0.73801700       3.32591500      -2.10569900       0.49804199       3.17389524      -2.12248574
Fe       4.51224000       4.61167000       7.05684000       2.53211900      -0.41024200       0.53825400       2.95398614      -0.71064650       0.48380073
Fe       6.32808000       6.81945000       4.24288000      -3.20445400      -0.33519400      -1.28892300      -2.80714171      -0.23357177      -1.07676685
Fe       6.22240000       7.17309000       0.16230000      -3.30904600      -2.75215800       1.90373500      -3.47575785      -2.96003860       2.02706632
Fe       4.54224000       7.44382000       7.03838000       0.17895600      -5.02037800      -8.74618400       0.32559620      -5.28874171      -8.86985433
Fe       4.73272000       8.55832000       8.35561000      -0.10588400       8.96287400       6.54083400      -0.35602437       9.32186268       6.18472320
Fe       7.67285000       2.82429000       2.17742000      -2.12886900      -0.76272600      -2.06587500      -2.14057409      -0.81348808      -1.96420984
Fe       6.74071000       1.77406000       4.33655000       0.47479500       0.50025500      -0.42349800       0.06928540       0.40420720      -0.43720267
Fe       7.16362000       1.61896000       6.68131000       5.11373900       1.83737400       0.70818800       4.68028662       1.59966387       0.62387436
Fe       6.73653000       4.13840000       7.84564000       0.19062300       0.32905600       3.59274800       0.17524003       0.46535715       3.59900203
Fe       6.61248000       5.35948000       2.44590000       0.96755600      -0.77403900      -0.47053600       0.86195935      -0.67100264      -0.42481266
Fe       8.39074000       4.95678000       4.82580000       0.50677700       3.21370700       1.22596300       0.55803969       3.15645362       1.08671972
Fe       6.62275000       6.29700000       6.29237000       0.91106900      -0.58785400       1.74696000       0.82922452      -0.49435697       1.60705608
Fe       8.00875000       8.14674000       2.12563000      -1.25903800      -1.94608200      -3.37077000      -0.86500998      -1.88261218      -3.43454633
Fe       7.96861000       8.10559000       4.08816000       1.24434400       0.03207600       4.40361200       0.73225388       0.04360031       4.57807671
B        3.14587000       1.61638000       2.59818000      -3.96044800      -1.57388800      -2.24367700      -3.98489751      -1.47677867      -2.01074650
B        4.07212000       1.93087000       3.78701000       0.55534200       0.12762300      -3.25123200       0.36351319       0.15069103      -3.24049721
B        2.24412000       1.90783000       4.05913000      -1.80380000      -9.70850100      -5.48536600      -1.89041799     -10.06495201      -5.62629155
B        2.90130000       3.06657000       4.45062000       2.48509300       7.60479000      -1.50334300       2.84232615       7.25118874      -1.50599322
B        2.82587000       3.80138000       5.80651000       0.21675600       2.27927400       3.92227300       0.25800801       2.21337461       3.96206503
B        2.60929000       5.04297000       1.66311000       0.12617300      -0.77075900      -0.46531300      -0.01630730      -0.84391169      -0.46496275
B        2.47198000       4.95014000       4.32601000      -0.76752800      -1.31946700       0.35153300      -0.79319505      -1.21129541       0.44700070
B        2.73354000       7.81887000       7.66829000      -1.47869400      -0.15377200       0.00458000      -1.53970795      -0.16785935       0.22594124
B        5.68071000       2.28134000       7.79544000      -0.95924500       0.41857400       1.11780500      -0.97387493       0.39724416       1.08672169
B        7.77536000       3.70665000       3.76574000      -0.44877700      -1.48394500      -0.38974400      -0.53600903      -1.42238888      -0.09025862
Si       0.79518000       0.92195000       5.77957000      -1.66645900      -4.94136200      -1.10925300      -1.62409596      -4.98328668      -0.97409166
Si       0.88055000       4.20706000       6.73551000       1.15626000       3.58432200      -0.32349000       1.10583818       3.66175815      -0.21820640
Si       1.15025000       6.44729000       2.43826000      -7.77651300      -1.83655100      -1.54918700      -7.79260637      -1.72703730      -1.69905723
Si       2.82820000       3.29548000       0.50208000      -4.05499500       1.58525200       5.32597100      -4.05341070       1.37568619       5.24711456
Si       4.14031000       6.38272000       0.30005000      -2.16949800      -2.44928300       2.57761000      -2.32885262      -2.38529179       2.45315157
Si       3.68345000       6.43010000       5.01209000       3.98893100       0.98565200      -2.13453700       3.86174581       1.16742254      -2.17815722
Si       5.73751000       0.59059000       2.53265000       5.08228400      -4.90021500       2.23852200       5.10209042      -4.84366666       2.50503703
Si       4.51163000       2.47994000       5.36819000       2.60737700      -2.86786400       7.12589500       2.81188395      -2.57814558       7.10026280
Si       6.43436000       3.75222000       5.86206000       1.38008400       0.66155200      -3.64612400       1.49057283       0.70928117      -3.73739792
Si       8.06432000       7.52318000       8.55473000       2.36409700      -3.06603600      11.34847700       2.68788105      -2.77268269      11.25813826
18
Lattice="6.5 0.0 0.0 0.0 6.5 0.0 0.0 0.0 6.5" Properties=species:S:1:pos:R:3:REF_forces:R:3:MACE_forces:R:3 config_type=Fe12B3Si3 REF_energy=-113.87843945 MACE_energy=-113.05029423750275 pbc="T T T"
Fe       5.40234000       5.43492000       1.53729000      -1.39532100       2.04028400       0.71142300      -1.01375552       1.81622969       0.69750729
Fe       2.09750000       2.10361000       0.54730000       2.35673700      -0.33103000       1.27254800       2.56770095      -0.12979604       1.38441244
Fe       2.84360000       1.73250000       3.81271000       2.28004000      -1.18251600      -0.27344700       2.25372669      -0.99951509      -0.20432286
Fe       0.77541000       4.93717000       1.04317000       1.56096300      -3.83372900       1.76362000       1.21070148      -3.37722062       1.61733060
Fe       0.07665000       3.70431000       3.74351000      -0.75952900      -0.39175400      -2.23189700      -1.22527634      -0.47698203      -2.24752271
Fe       4.77171000       3.58949000       4.78220000      -1.99219600      -4.62409700       0.48420500      -1.61962902      -4.52221014       0.37783661
Fe       4.12430000       1.49867000       1.46476000       0.29771700      -2.38794700       0.28396300       0.24432530      -2.67379232       0.11465559
Fe       0.95387000       5.17746000       5.28728000      -0.57085000      -0.50160400      -1.80733600      -0.93865342      -0.65003554      -1.37713183
Fe       1.93602000       3.09888000       2.36598000      -0.08855100       0.43128300      -0.27209000      -0.21545800       0.46598617      -0.66956968
Fe       5.69037000       1.28357000       4.20026000      -0.40866000      -0.49067900       0.18976600      -0.85483468      -0.32701399       0.22207740
Fe       1.94321000       2.86141000       5.39871000      -0.55906500       0.73218900      -1.80086600      -0.44558765       0.67158713      -1.95110183
Fe       4.33122000       5.38124000       5.25469000      -0.73272900       4.56545400       1.52017900      -0.54004736       4.36685294       1.57932873
B        0.37598000       1.64060000       1.21420000      -3.21263000       2.85095800       0.76078000      -2.95575573       2.69372456       0.79598532
B        1.88110000       4.04794000       3.96741000       2.48956600       2.45119300      -0.32261600       2.66316105       2.44060879      -0.26396207
B        3.63878000       0.94242000       5.41981000      -0.01444500       0.67937600       0.95779200       0.11268483       0.80671902       1.08690072
Si       1.19380000       0.26963000       0.19686000       0.54051800       0.24528300      -1.93219100       0.62315043       0.02928109      -1.81232327
Si       4.57825000       3.47658000       1.16117000       0.15934200       1.26766700      -0.81102600       0.18007316       1.52537805      -0.81562880
Si       1.09558000       0.76720000       2.75124000       0.04909300      -1.52033200       1.50719200      -0.04652619      -1.65980165       1.46552835
54
Lattice="8.579999685 0.0 0.0 0.0 8.579999685 0.0 0.0 0.0 8.5799996" Properties=species:S:1:pos:R:3:REF_forces:R:3:MACE_forces:R:3 config_type=Fe34B10Si10 REF_energy=-356.0869274 MACE_energy=-356.9325942897403 pbc="T T T"
Fe       0.92877000       1.08311000       2.12831000      -0.53214900      -1.15432400       0.53007800      -0.73305392      -1.18334156       0.39337453
Fe       1.12794000       0.45096000       7.37327000      -2.86345100       2.18226700       1.45805300      -2.81667104       1.96839063       1.42666338
Fe       0.91289000       3.61082000       1.96264000      -1.66570100       0.50807500      -4.76654600      -1.73635858       0.38188603      -4.81463725
Fe       0.97242000       3.25012000       3.83975000      -0.85629000      -1.23507100      -0.91491200      -1.10688363      -1.25503830      -0.15294634
Fe       1.43574000       3.84332000       5.84621000      -1.94378300      -0.72872400       4.94145300      -2.08085740      -0.65028163       4.75273209
Fe       0.45897000       5.99881000       1.32384000       1.86679900       1.45939200      -0.33976700       1.63335125       1.50912687      -0.17729733
Fe       0.05714000       6.25044000       6.01250000       0.66851500      -0.88142700       1.67028200       0.67506432      -0.76705267       1.69450986
Fe       1.87526000       7.05991000       7.27744000      -5.90957000       6.81146600       5.95768600      -5.73313015       7.25001618       6.00380537
Fe       4.21220000       0.80536000       3.81626000       0.44958900      -1.97725700       0.54591300       0.46492023      -1.88368230       0.40770835
Fe       2.64196000       0.75311000       5.88605000       0.80305000      -0.92688600      -1.50973400       0.50131718      -1.02876989      -1.54327464
Fe       2.51735000       4.27963000       7.86001000      -0.17185400       2.88247300       0.00075600      -0.00392039       2.92712451       0.15431088
Fe       2.46175000       4.76211000       4.38544000       2.27245000       6.36429500      -0.60000700       2.19365877       6.36930931      -0.74914748
Fe       3.99132000       4.46692000       6.09268000      -0.21521200      -1.96607600      -0.25853400      -0.17069593      -2.28691721      -0.20347617
Fe       4.03283000       6.20484000       2.50717000       0.32509400      -1.83048700       1.07686200       0.41218882      -1.76525918       1.05839257
Fe       2.62183000       8.12097000       1.25125000      -5.45108600      -1.04608100      -0.88869000      -5.50507810      -1.14132895      -0.64899862
Fe       2.34208000       7.49949000       3.33705000      -1.45221900       0.10179900       1.96325000      -1.26947326       0.17444132       1.64810804
Fe       4.67554000       0.98699000       8.35162000       1.97529500       0.95938300       0.07305200       1.66086608       0.87572700       0.29685659
Fe       4.68615000       2.28426000       1.60336000       6.03713100       4.39249100       1.56082500       6.25080491       4.32031922       1.13804227
Fe       4.95897000       4.28949000       0.91503000       1.24258400       3.77490300      -1.07876200       0.83032473       3.58298777      -1.23711853
Fe       5.62605000       3.84953000       3.25301000      -4.56775200       3.43217100       2.09526400      -4.53088630       3.55322317       1.89720676
Fe       5.63153000       5.70233000       4.67966000       0.04558900       0.36352900      -0.74034800       0.01848592      -0.04532052      -0.58907475
Fe       5.00954000       6.14620000       6.89198000       4.51113600      -2.60361300       1.43664400       4.57716741      -2.37099970       1.44017837
Fe       5.34723000       7.32984000       0.56425000       3.41130600      -7.55812200      -7.44238600       3.51911720      -7.03389731      -7.26646976
Fe       4.57141000       8.20633000       1.67615000      -2.51651100       6.57056000       9.11650700      -2.70638575       6.04856797       8.72871652
Fe       5.67084000       7.83697000       6.02451000      -0.02983000       3.57151200       0.33120700      -0.02626179       3.59687912       0.33141318
Fe       7.65837000       1.05332000       0.64336000       1.95813700       2.93603900      -3.62028800       1.88330398       2.90245819      -3.56260026
Fe       7.23579000       1.49494000       3.62009000       0.88838800      -1.50203300       3.00240400       0.93548633      -1.47465111       3.08809485
Fe       6.96409000       1.59543000       6.70415000       0.40175100      -2.57633900      -0.54943900       0.52663806      -2.54160080      -0.59163466
Fe       6.97946000       3.05325000       2.27831000       3.01329100      -2.85779700      -7.80747400       2.46969601      -2.95803465      -7.28724036
Fe       7.05854000       3.62734000       7.13255000       0.94483300       2.42104600       2.56329500       1.04103925       2.48847494       2.51133887
Fe       7.47490000       4.49325000       0.92243000      -3.13561000       0.06366500       0.11142200      -2.88030751       0.49300343      -0.16360364
Fe       7.76499000       5.40883000       4.05655000       3.42051700      -2.49950500       1.10150300       3.48777497      -2.64033850       1.12511582
Fe       6.91686000       6.16423000       2.38917000      -4.34160700       0.52717700      -3.24358900      -4.32136720       0.56211510      -3.21080799
Fe       7.31773000       7.39473000       4.73130000      -1.41907300       3.06948200       1.38572900      -1.48730863       2.98164541       1.41778101
B        1.63947000       5.44017000       2.85377000      -1.37965300       1.67099600      -0.34434500      -1.50920126       1.78106234      -0.56923384
B        3.47444000       1.29905000       1.69513000      -6.04542900      -7.46227000      -1.52467000      -5.89438359      -7.12524947      -1.07131383
B        2.31673000       1.42955000       3.77944000      -1.85652800      -2.14982900       3.21956500      -1.68843684      -1.98352233       3.42346927
B        3.17088000       0.01260000       8.16689000      -2.14308300      -0.12737100      -3.63430700      -1.99038573       0.11257780      -3.58099169
B        2.48887000       2.23189000       2.44876000      -1.30373000       3.96631200      -0.94871100      -0.89857188       3.81843193      -1.29408286
B        3.55016000       3.21990000       0.17024000       2.13469500      -3.52588700       0.23974700       2.12795205      -3.41636746       0.30869010
B        3.12966000       3.07291000       4.24572000      -6.99085300       0.34377600      -0.16579100      -7.07508511       0.14894370      -0.15855207
B        2.38358000       5.95301000       6.34325000       2.25901800      -8.76611800      -6.31465800       2.15453692      -9.25885284      -6.58111232
B        4.46260000       2.62992000       4.23823000       7.08507900      -1.75449200       0.40993300       7.17485635      -1.88364533       0.45594657
B        7.51183000       3.59374000       3.85724000       1.49621300      -1.20378300       3.39561400       1.55314733      -1.06579970       3.21732844
Si       0.50050000       1.66927000       5.10425000      -1.02554400      -2.67263500       2.61432900      -0.78480959      -2.91671613       2.64697429
Si       0.41923000       4.50138000       8.15701000       0.82744200      -0.47721100      -2.57541600       1.07203871      -0.40184580      -2.87831247
Si       2.90131000       4.25049000       1.93860000       2.71957100       0.04497600      -0.88170100       2.89049539      -0.01047945      -1.08176935
Si       3.74353000       6.85388000       5.19884000      -1.20766000       1.80214700      -2.20114300      -1.06310129       2.07613970      -2.12493565
Si       3.54209000       6.47938000       8.21357000      -0.45014500      -1.75854100       4.24377300      -0.53820489      -2.01372362       4.42707934
Si       4.55252000       1.74669000       6.40118000       0.28733400       0.20348600      -1.69136000       0.22486272       0.11912414      -1.60643743
Si       5.87020000       3.30923000       5.41310000       1.93974000       0.55942400      -1.14043100       1.56753992       0.80387919      -1.07524395
Si       6.68392000       0.09389000       2.07850000      -2.78148600      -1.30329400       2.70552900      -2.43626735      -1.23315698       2.79981074
Si       7.30980000       7.36953000       0.08595000       4.18267400      -0.22507900      -1.67891000       4.11227164      -0.49871339      -1.67976339
Si       8.41387000       7.50606000       2.97540000       5.08859000       1.78741200      -0.88875800       5.02818063       1.98873180      -0.89357143
54
Lattice="8.579999685 0.0 0.0 0.0 8.579999685 0.0 0.0 0.0 8.5799996" Properties=species:S:1:pos:R:3:REF_forces:R:3:MACE_forces:R:3 config_type=Fe34B10Si10 REF_energy=-359.84864784 MACE_energy=-360.1889081941999 pbc="T T T"
Fe       0.39531000       2.37288000       0.87042000       3.27925500       2.43832800      -1.60261100       3.20769309       2.70230078      -1.75231801
Fe       0.75383000       1.65209000       3.11094000       1.30783500      -0.34615400      -0.09267000       1.28466600      -0.88019855       0.11461489
Fe       1.33201000       3.79282000       7.26231000      -2.40668100      -1.18131200       0.32245500      -2.59967471      -1.11658144       0.27911914
Fe       0.64436000       4.41396000       2.97573000       2.42004200      -2.26182600       0.38963900       2.49323852      -2.07955668       0.31975279
Fe       0.14751000       6.42079000       3.51005000      -3.07002100       1.32407200      -2.30638400      -3.06605964       1.27958818      -2.38643469