15
Lattice="5.664536 0.0 0.0 0.0 5.664536 0.0 0.0 0.0 5.664536" Properties=species:S:1:pos:R:3:REF_forces:R:3:MACE_forces:R:3 config_type=Fe13Si1B1 REF_energy=-108.19731369 MACE_energy=-160.24004935968713 pbc="T T T"
B        4.05901000       2.70568000       1.01305000      -1.63855300      -0.82904000       0.73367400      -0.19001130      -0.07894720      -0.02062665
Si       2.82856000       0.10655000       3.62968000      -1.37485700       1.04288500       1.12851000      -0.11273477       0.01860234       0.09918306
Fe       2.58297000       1.18377000       1.20948000       0.93367000       0.14656100       0.38941200       0.22177879      -0.19929744      -0.13491516
Fe       0.38153000       0.68989000       3.08804000       0.88723900       3.84366500       0.15858400       0.16498839       0.16836782       0.09863211
Fe       1.54589000       2.38203000       4.72041000      -2.07199500      -0.40415400      -0.21731400      -0.30389554      -0.30840268      -0.02197850
Fe       0.00965000       3.55673000       0.57847000       1.87002200       0.46818400      -0.57360300       0.02049824       0.07038351       0.05106558
Fe       4.86453000       2.71686000       2.75028000       1.57660800      -1.70083300       1.51404400       0.13857135      -0.16298383       0.25788513
Fe       4.62966000       0.98828000       5.06676000       0.07922500       1.31640700       1.29952100      -0.19077794       0.18141626       0.03433667
Fe       0.62475000       4.47163000       2.76945000       1.95380600      -3.21231900      -1.53544400       0.28531315      -0.01079593      -0.18393120
Fe       4.87774000       4.67993000       4.41653000      -0.64493200      -0.53503200       0.30435400      -0.14890274       0.04400726      -0.11681973
Fe       3.59664000       2.87221000       4.83153000       0.23532500      -0.37357900      -1.60523300       0.09067590      -0.00521544      -0.06836904
Fe       0.66156000       0.50203000       0.73880000      -0.79576700      -0.85035100      -0.29863700      -0.07299608      -0.19553708      -0.04846609
Fe       2.16986000       4.37529000       0.15492000      -0.00013300       0.94038800       0.69583500       0.20863251       0.21223050       0.17557629
Fe       3.84648000       4.71531000       2.05312000       0.75417200       0.77170900      -2.19861800       0.18385825       0.22762622      -0.18174171
Fe       2.60819000       2.98871000       2.55518000      -1.76382900      -0.62449100       0.20491400      -0.29499821       0.03854569       0.06016922
15
Lattice="5.664536 0.0 0.0 0.0 5.664536 0.0 0.0 0.0 5.664536" Properties=species:S:1:pos:R:3:REF_forces:R:3:MACE_forces:R:3 config_type=Fe13Si1B1 REF_energy=-108.15566798 MACE_energy=-160.30406908747665 pbc="T T T"
B        4.14873000       2.95379000       1.06658000       0.16200100      -0.29917000      -0.39394100       0.04848351      -0.07776629      -0.13028825
Si       3.70970000       1.75376000       4.70342000       2.39954500       1.99334400       0.69658000       0.05864946       0.15320102      -0.04464293
Fe       0.77141000       5.48369000       0.61772000       0.15863900      -0.70463600       0.73580300       0.16423247      -0.19356619       0.12684725
Fe       2.70222000       5.62328000       2.66112000      -2.84701800       1.11988600      -2.77526600      -0.45268378       0.17547475      -0.15757099
Fe       2.40590000       1.49012000       0.76033000       2.44811900      -1.09619800       2.05304000       0.34643038      -0.11199979       0.11410175
Fe       0.05981000       0.25678000       4.08407000      -0.72088300      -0.40435400      -1.12965000       0.02638592       0.01548801      -0.09221013
Fe       2.69016000       5.46683000       4.60121000      -0.81406600      -1.20768000       2.79556400      -0.13839873      -0.00790694       0.10094337
Fe       1.47386000       1.76151000       4.03878000       0.25632200       2.31886200      -0.70750300       0.15786413       0.31128575      -0.06581421
Fe       5.58209000       3.47185000       2.53703000       2.04828400       0.56513400      -0.37619200       0.43171093       0.09346930       0.20892083
Fe       2.39981000       3.74553000       0.37431000      -0.23425500       0.56240000       0.37900500       0.04788884      -0.03361549       0.09249025
Fe       4.35312000       1.55651000       2.64463000       0.99871600      -1.26274600      -2.03362100       0.05965106      -0.13380242      -0.23549828
Fe       4.71996000       4.32124000       4.97431000      -0.09930100      -2.16645100       0.36829600      -0.04910635      -0.44831982      -0.08819810
Fe       4.35696000       5.05523000       1.41829000       0.42683500       0.31250100      -0.90165400      -0.09638367       0.19043458      -0.11164523
Fe       0.47139000       2.05266000       0.60057000      -2.75315200       0.98470800      -0.10508100      -0.28022085       0.23494635      -0.00496670
Fe       3.41003000       3.62129000       2.91823000      -1.42978400      -0.71560000       1.39462200      -0.32450331      -0.16732283       0.28753139
15
Lattice="5.664536 0.0 0.0 0.0 5.664536 0.0 0.0 0.0 5.664536" Properties=species:S:1:pos:R:3:REF_forces:R:3:MACE_forces:R:3 config_type=Fe13Si1B1 REF_energy=-107.93807169 MACE_energy=-160.00587342880505 pbc="T T T"
B        3.89991000       3.42526000       0.45422000       0.11547000      -0.03553900       1.12451100       0.20724324      -0.02323155       0.30047390
Si       3.48762000       0.16630000       4.61337000       0.32574800       0.46308000      -0.01786500      -0.04865703      -0.00884372       0.06490479
Fe       2.84778000       1.82037000       0.82228000      -0.98232500      -1.42221600      -1.89337000      -0.09186537      -0.14511680      -0.35541143
Fe       1.34857000       0.81784000       2.30075000      -0.53643500       0.46265000      -1.19653800      -0.01223408       0.09219007      -0.25895767
Fe       1.57642000       1.26355000       4.33118000       0.04619000       0.17232100       0.29400800       0.11506833      -0.04988033       0.23756299
Fe       0.65713000       2.94926000       0.95396000      -1.72120200      -1.22782100       0.66296100      -0.35097131      -0.19527001       0.12555239
Fe       4.05988000       1.97076000       2.38888000       1.24013900      -1.25976700       1.55714700       0.12475535      -0.05532318       0.09205233
Fe       5.41523000       1.91313000       4.86891000      -2.57043500      -0.52568200      -0.40262900      -0.49551393      -0.06780350      -0.05798719
Fe       1.35795000       4.61467000       3.62292000      -1.17710100      -0.19986100       1.26666800      -0.10985114       0.03230286       0.15108453
Fe       4.95776000       4.27854000       4.85033000       2.20080800       0.77958800      -0.24901600       0.16315760       0.08195474       0.06325742
Fe       2.90817000       3.15860000       4.25698000      -0.87756600      -0.39846100       1.25184100       0.04521645      -0.08058760       0.11846822
Fe       4.97903000       5.64594000       1.36431000      -0.69131800      -0.04726100      -0.44322300      -0.22084722       0.05602009      -0.19296215
Fe       1.21860000       5.04312000       0.28941000      -0.01329800       1.97019200      -1.42146800       0.18651151       0.29565899      -0.19782593
Fe       4.19049000       3.99341000       2.69223000       2.99720200       1.59092800      -0.45710200       0.24141083       0.18128396      -0.11243720
Fe       2.24232000       4.14646000       1.80095000       1.64412400      -0.32215200      -0.07592500       0.24657678      -0.11335402       0.02222501
15
Lattice="5.664536 0.0 0.0 0.0 5.664536 0.0 0.0 0.0 5.664536" Properties=species:S:1:pos:R:3:REF_forces:R:3:MACE_forces:R:3 config_type=Fe13Si1B1 REF_energy=-111.97852358 MACE_energy=-160.91957386455942 pbc="T T T"
B        0.06916000       5.66432000       5.18689000       0.12008200      -0.64043800       0.01360000       0.08039178      -0.23320239       0.06506865
Si       0.02740000       2.72248000       2.59682000      -0.95092500       0.36379500       0.29566700      -0.17194552       0.05741703      -0.00071549
Fe       0.14116000       5.54768000       2.85133000       0.08282300      -0.00674100       0.52027800      -0.15423616       0.07586832      -0.00135238
Fe       5.56722000       2.97052000       5.53670000      -0.67309900       0.24460700       0.18564600      -0.03578362      -0.02706055       0.11225856
Fe       2.56501000       0.00405000       5.40440000       0.68434000      -0.27592000       0.60718700       0.16335907      -0.05718622       0.15967453
Fe       2.97079000       2.77487000       5.60913000       0.61990200      -0.30745300       0.59180600      -0.07463576      -0.04873107       0.04133019
Fe       3.14055000       2.58779000       2.39876000      -0.26535600       0.46856000       0.15364600      -0.06089306       0.06716624       0.06722536
Fe       1.27023000       1.29362000       1.29220000       0.59662900      -0.36144800      -0.82067800      -0.02458459       0.06355318      -0.17623223
Fe       1.26884000       1.40412000       4.24821000      -0.00500300       0.79776500      -0.57479700       0.01863288       0.32983229      -0.10835588
Fe       1.43809000       4.26211000       1.36341000       0.07769500      -0.05884300      -0.22592600       0.04170528      -0.09140493      -0.01458381
Fe       1.52070000       4.14480000       4.13170000      -0.18321100      -0.27105400      -0.71528600      -0.00700296      -0.23389419      -0.16228723
Fe       4.46936000       1.09579000       0.98330000      -0.11971100       0.01004100       0.24750400       0.08835300       0.06040050       0.02225224
Fe       4.16783000       1.22547000       4.11325000       0.42899800      -0.08684700      -0.08842400       0.21136333       0.02401737       0.04448897
Fe       4.22673000       4.46813000       1.30140000       0.09689500      -0.37725000      -0.41990000       0.01781243      -0.08095271       0.00008385
Fe       4.20815000       4.21553000       4.01300000      -0.51005900       0.50122500       0.22967700      -0.09253610       0.09417714      -0.04885532
15
Lattice="5.664536 0.0 0.0 0.0 5.664536 0.0 0.0 0.0 5.664536" Properties=species:S:1:pos:R:3:REF_forces:R:3:MACE_forces:R:3 config_type=Fe13Si1B1 REF_energy=-111.93959828 MACE_energy=-160.81912344409142 pbc="T T T"
B        0.52210000       0.05440000       5.04153000      -0.83789800      -0.96014800      -0.42271900      -0.10528018      -0.10472659      -0.09474310
Si       5.59498000       2.75302000       2.63746000      -0.41285400      -0.16722200       0.32382300      -0.06353165      -0.07680893      -0.08126722
Fe       0.17766000       0.05624000       2.77011000      -0.22089500       0.44737300       1.17937900      -0.10942550       0.06543558       0.15942292
Fe       5.59682000       2.78032000       5.61495000      -0.22239300       0.41310500      -0.03657000       0.03437919       0.03405408      -0.07901472
Fe       2.71989000       5.37982000       5.43745000       0.17724800       0.17436200       0.47840000      -0.07179793       0.18103240       0.03603406
Fe       2.70157000       2.72483000       5.65192000       0.89303700       0.73165300       0.81071700       0.18568458       0.19213618       0.12344958
Fe       2.97278000       2.68063000       2.60608000       0.64664100       0.39382500      -0.89779500       0.21097409       0.18851359      -0.24502058
Fe       1.04462000       1.15381000       0.98518000       0.85892600      -0.28038300       0.02628300       0.15007834       0.04369042       0.04240541
Fe       1.65813000       1.50296000       3.98982000      -0.38663100      -0.26210300      -0.11433700      -0.14609935       0.00213617       0.11640397
Fe       1.30631000       4.30849000       1.24352000      -0.41412900       0.11159100       0.24697100      -0.10799365      -0.08005111       0.12248765
Fe       1.58576000       4.06734000       3.99489000      -1.17533100      -0.00634600      -0.85725300      -0.26554742      -0.11383204      -0.14368811
Fe       4.12820000       1.13618000       1.10587000       0.62554700       0.31979100       0.22031500       0.21250884       0.06839950       0.06666833
Fe       4.25787000       1.24949000       4.17529000      -0.08913900      -0.07677300       0.23295600      -0.01578013       0.04350819       0.10016874
Fe       4.35495000       4.45297000       1.34581000      -0.13361000      -0.53467800      -0.51744000       0.00864075      -0.28005933      -0.02493537
Fe       4.41108000       4.43949000       4.32316000       0.69148200      -0.30404700      -0.67272800       0.08319002      -0.16342811      -0.09837158
15
Lattice="5.664536 0.0 0.0 0.0 5.664536 0.0 0.0 0.0 5.664536" Properties=species:S:1:pos:R:3:REF_forces:R:3:MACE_forces:R:3 config_type=Fe13Si1B1 REF_energy=-111.86184603 MACE_energy=-160.56194255782134 pbc="T T T"
B        1.50863000       1.78767000       4.90152000      -0.44122900      -0.13378600       0.30200900       0.03671825      -0.03378508       0.03224262
Si       4.79549000       2.24346000       2.10133000      -2.02834800      -2.06166200      -2.37230900       0.01111100      -0.07357479      -0.24054630
Fe       3.20380000       0.75276000       3.12970000      -0.26094900      -0.46491400       0.88121400       0.05527524       0.06867974       0.27858410
Fe       2.86828000       3.52346000       0.83472000       0.63525800      -0.40693500      -0.10677300       0.03395642      -0.17365205      -0.13047206
Fe       0.30208000       0.41203000       3.59178000       0.43152100       1.99959300       0.71104900       0.00689405       0.24337061       0.02756656
Fe       4.64149000       4.82814000       4.64319000      -2.32204000      -0.32641000       1.26424000      -0.56207548       0.10159697       0.07683333
Fe       1.38623000       5.04883000       1.95913000       0.13404600      -0.76597900       0.26900800       0.03178636      -0.22435622       0.15285362
Fe       0.01651000       0.69762000       0.56316000       0.43357300       0.50429600      -0.59615700       0.00891260       0.21565413      -0.05303537
Fe       1.71843000       1.81951000       1.96274000      -0.50569400       0.44278300      -1.08150200      -0.40423156       0.10616911      -0.11213350
Fe       2.49328000       3.31853000       3.75571000       0.60663900       0.53722000       0.22889400       0.12403120       0.07034544       0.13650248
Fe       0.35204000       3.39611000       0.17394000       0.28417100      -0.58935200       0.45847800       0.11093442      -0.17555197       0.30723112
Fe       0.11270000       3.44811000       3.40342000       2.52442400       0.78461300       1.86263000       0.24726123      -0.08588112      -0.02378154
Fe       4.37430000       4.86511000       1.96411000       0.02203300      -0.44143500      -0.21812100       0.27002772      -0.16861489       0.06555151
Fe       1.91304000       5.29856000       5.45252000       0.85584700       1.12077600      -1.36953800       0.20107339       0.14420494      -0.44428612
Fe       3.73798000       1.56980000       5.38787000      -0.36925300      -0.19880800      -0.23312100      -0.17167483      -0.01460483      -0.07311044
15
Lattice="5.664536 0.0 0.0 0.0 5.664536 0.0 0.0 0.0 5.664536" Properties=species:S:1:pos:R:3:REF_forces:R:3:MACE_forces:R:3 config_type=Fe13Si1B1 REF_energy=-121.96103282 MACE_energy=-160.57115909958762 pbc="T T T"
B        1.89945000       0.62627000       3.85277000      -2.50069800       2.16966800      -1.53918900      -0.23941070       0.26399686       0.07839482
Si       0.20120000       2.04269000       2.64503000       1.02931600      -0.66199100      -2.72694900      -0.03425421      -0.02124690      -0.23152517
Fe       2.66066000       5.42797000       2.26357000       0.53979700      -0.03646200      -1.31830900       0.13014166      -0.19373153      -0.15727598
Fe       2.90276000       2.67008000       2.15492000      -1.83815700      -0.38139400      -2.84113500      -0.34185869       0.08690723      -0.17939489
Fe       3.76617000       1.41579000       3.61058000       1.59818700      -1.99316500       0.96094000       0.46710251      -0.09305437       0.04647452
Fe       4.35629000       3.78643000       3.20548000      -0.08184500       1.05317100       0.76552100      -0.09641027       0.08703654       0.09623378
Fe       4.47628000       4.06991000       0.64852000      -0.83953300      -0.22453300       0.86736600      -0.28155601       0.04190602       0.06458505
Fe       4.19523000       1.12987000       0.84517000       0.20926900       0.78044000      -1.95195400       0.13723510      -0.02604095      -0.13745423
Fe       1.20944000       0.98558000       0.54562000       0.36331500       0.64694800       1.15320100       0.05054795       0.11261906       0.08263227
Fe       2.93679000       5.24715000       4.85612000       1.78737200      -1.05335100       3.04321700       0.05413942      -0.03484734       0.14550800
Fe       2.46429000       3.02068000       4.78866000      -0.08418600      -0.93215200       0.71303400      -0.00663410      -0.20780092      -0.02409552
Fe       5.64539000       2.77685000       4.69631000       0.33002600      -0.76378800       3.33994500       0.14097735      -0.12867350       0.22471988
Fe       1.14045000       3.92385000       0.99225000      -0.27335200       0.02348800       0.25089500       0.04159217       0.06655121      -0.09196756
Fe       0.17432000       5.38924000       4.59788000      -0.87103600      -0.20642700       0.99417600      -0.17037796      -0.23186749       0.18367829
Fe       5.41134000       5.44443000       2.36685000       0.63152700       1.57954900      -1.71076000       0.14876578       0.27824608      -0.10051325
15
Lattice="5.664536 0.0 0.0 0.0 5.664536 0.0 0.0 0.0 5.664536" Properties=species:S:1:pos:R:3:REF_forces:R:3:MACE_forces:R:3 config_type=Fe13Si1B1 REF_energy=-109.57699008 MACE_energy=-160.50597013108197 pbc="T T T"
B        1.60964000       1.20953000       3.30762000      -0.01479600      -0.54483200       0.36412700      -0.00892390      -0.03332133       0.01313387
Si       1.95419000       3.78303000       0.40477000       2.58923000       0.78612200      -1.61162900       0.16694978       0.03095774      -0.04082905
Fe       3.57229000       4.89724000       1.78218000      -0.69680300       0.94883800       2.04020100      -0.19024702       0.05854804       0.16706628
Fe       3.21513000       2.00319000       1.86162000       1.30615200      -1.04311700      -1.34636300       0.18666597      -0.10715197      -0.08131595
Fe       5.12136000       1.05340000       3.05836000       0.48907600      -0.57242700       0.35981000       0.11698609      -0.22820549       0.11251769
Fe       5.33303000       3.41064000       3.19935000      -1.19050900       0.64225800       0.16946300      -0.14891132       0.14254425      -0.07662805
Fe       4.69645000       3.56410000       0.59057000       0.42357200      -2.45414500       1.39631500       0.10966723      -0.25143746       0.20511006
Fe       5.00397000       0.79608000       0.67759000       0.28054300       1.18762000       0.69531900      -0.09115025       0.13915361       0.02472815
Fe       1.02131000       2.39370000       1.67631000      -1.48205000      -1.99677700       1.89497700      -0.15563358      -0.04369910       0.06894809
Fe       4.49205000       4.87623000       4.87240000      -1.22864200       1.13873400      -2.26444700      -0.21567246       0.12725640      -0.20299760
Fe       3.40200000       1.47027000       4.46233000      -0.01871000      -0.18409200       0.67173000       0.02049833      -0.15686864       0.17275157
Fe       0.59504000       2.14210000       5.17631000       0.66645200      -0.32293300      -3.32851400       0.23051407      -0.02964367      -0.51656562
Fe       1.14446000       5.07983000       4.43636000      -0.37358200       1.06798600      -0.87155500       0.00669845       0.10091378      -0.12920863
Fe       2.52599000       3.18146000       3.48749000      -0.80261000       1.79870400       1.25168000      -0.16012069       0.39499448       0.17527769
Fe       0.91985000       5.18762000       1.86613000       0.05267700      -0.45193900       0.57888600       0.13267931      -0.14404062       0.10801149
15
Lattice="5.664536 0.0 0.0 0.0 5.664536 0.0 0.0 0.0 5.664536" Properties=species:S:1:pos:R:3:REF_forces:R:3:MACE_forces:R:3 config_type=Fe13Si1B1 REF_energy=-111.24757227 MACE_energy=-160.68261751088266 pbc="T T T"
B        2.53656000       2.62317000       3.66583000      -0.11566700      -0.22978700       0.53017200       0.00742159      -0.01945999       0.07772864
Si       0.67483000       4.27329000       2.69225000       0.92910600       0.68145900       0.71622000       0.16394699       0.02683444      -0.03978702
Fe       5.14560000       5.37767000       1.05479000      -0.04263700       0.54874800      -0.34508500      -0.04722504      -0.01151754       0.09342708
Fe       5.17725000       2.96978000       1.28337000      -0.94481700       0.15150400      -1.65556500      -0.16222544       0.07380739      -0.14121914
Fe       4.74580000       3.13666000       4.02461000      -0.25444200      -0.82574700      -0.11998600       0.01022705      -0.06547446      -0.19371048
Fe       0.33821000       1.51110000       2.57588000       1.22080500      -1.49602800       0.46012600       0.35213966      -0.13361422       0.13143526
Fe       3.09808000       4.41167000       2.55098000       1.58954700      -0.62340300      -0.59486000       0.32928096      -0.07924685      -0.06009941
Fe       4.73088000       0.16933000       4.32731000       1.21238200      -0.98254900      -0.92008400       0.10682809      -0.28008748      -0.13124613
Fe       3.65998000       1.37781000       0.06620000      -0.53114300       0.39644200       0.40797800      -0.12824789       0.33324532      -0.11713473
Fe       3.63898000       1.27668000       2.55773000      -0.56432500       0.60761700      -1.09420600      -0.04562976       0.01546503      -0.25465463
Fe       3.30156000       4.03302000       5.51710000       0.66273100       0.68309200      -0.51252300       0.16998487       0.04908293      -0.03329819
Fe       2.04972000       2.93776000       1.03536000      -1.23701100      -0.98796000       1.66434700      -0.24777715      -0.11433107       0.40951758
Fe       2.16302000       5.60665000       3.99134000      -0.76618900       1.59088200       1.80303200      -0.09157866       0.22953165       0.20308362
Fe       0.95543000       1.84266000       4.95473000       0.27866900      -0.07002100       0.06014100      -0.05401768      -0.12232183       0.05546134
Fe       2.02568000       0.02468000       0.99960000      -1.43701000       0.55575000      -0.39970700      -0.36312759       0.09808668       0.00049621
15
Lattice="5.664536 0.0 0.0 0.0 5.664536 0.0 0.0 0.0 5.664536" Properties=species:S:1:pos:R:3:REF_forces:R:3:MACE_forces:R:3 config_type=Fe13Si1B1 REF_energy=-108.79062395 MACE_energy=-160.4016839921823 pbc="T T T"
B        5.36400000       3.87568000       4.45905000       0.44648400       0.57032200       0.28604800       0.03380254       0.06344260       0.00914724
Si       3.93387000       4.96403000       3.15711000      -4.30606800      -2.31482200      -2.68264300      -0.27731702      -0.13790715      -0.20399349
Fe       3.00216000       0.92096000       1.44117000      -0.76996800       0.42082500      -0.07835300      -0.00115154       0.00680711      -0.02613440
Fe       1.34518000       5.62588000       2.73234000       2.41172500       0.19969700       0.20083700       0.44720995      -0.11287930       0.10914094
Fe       0.44730000       2.09377000       4.98703000       1.17940300       0.68255400       0.66504100       0.25095753       0.06235063      -0.08904481
Fe       0.30923000       3.79563000       2.39919000      -0.97580900      -1.20085800      -1.00234600      -0.15428325       0.08988753      -0.07282324
Fe       0.18648000       1.06356000       1.31692000      -0.60348600       1.79501500       0.12312700      -0.01955481       0.29456900       0.09307434
Fe       4.00265000       2.83038000       0.00570000       0.03088500      -0.70677300      -0.45368100      -0.04001460      -0.15244408      -0.04881488
Fe       5.37135000       0.30945000       4.05759000       2.43746500       1.21842000       2.05861100      -0.21526542      -0.05342386       0.07845268
Fe       2.32985000       3.12186000       1.52540000       0.40818200       0.55373600       0.67629300      -0.03776965       0.15630726       0.12675073
Fe       2.77320000       0.82160000       4.63749000       0.11143500       0.28254000       0.06072400       0.17859709       0.10269304      -0.07846700
Fe       1.20304000       4.94889000       5.64649000       0.50304000      -0.54997900       0.60819900      -0.01901070      -0.01918302       0.31698724
Fe       4.43330000       2.29054000       2.94368000      -1.10290800       0.42652200       0.72577900      -0.24167725       0.07048918       0.24071756
Fe       4.45738000       5.14386000       0.73674000       0.07827300      -0.88309100      -1.20270400       0.06122940      -0.32084901      -0.17783465
Fe       2.20236000       3.55424000       4.11335000       0.15134500      -0.49410700       0.01507000       0.03424772      -0.04985994      -0.27715827
15
Lattice="5.664536 0.0 0.0 0.0 5.664536 0.0 0.0 0.0 5.664536" Properties=species:S:1:pos:R:3:REF_forces:R:3:MACE_forces:R:3 config_type=Fe13Si1B1 REF_energy=113.06017811 MACE_energy=-160.33236286179505 pbc="T T T"
B        1.39848000       0.19193000       0.61048000      -4.08297800       9.29302800       8.69098400       0.04051015       0.21606838       0.32830441
Si       2.92490000       2.16030000       2.14060000      -2.63496600       9.58037000      -0.49561900       0.03972175      -0.09536400      -0.03040632
Fe       2.86073000       2.70503000       5.26584000       4.32356800      10.20896900      -4.70309300       0.21728522      -0.19540432      -0.04405855
Fe       4.47802000       3.64784000       3.04881000      -8.75739200       8.66530300      12.20431400      -0.00871890      -0.07533997       0.45176686
Fe       0.21576000       2.05514000       5.23160000     -18.24380600     -12.70694800      22.88283100       0.47298667      -0.01857175      -0.07606294
Fe       0.44166000       2.36030000       2.32519000       9.91181000      13.04098500      -5.34425400       0.23739924      -0.15833184      -0.12874333
Fe       2.03954000       3.82953000       1.07367000      -9.51630500       5.90074000      24.04305300      -0.27526850       0.04935297       0.10852859
Fe       1.39295000       3.86962000       3.86875000       5.08493300      -5.56046400     -11.44166200       0.06729021      -0.06474208      -0.08755975
Fe       4.42805000       1.04262000       3.76613000      10.93879500       4.90624100      -3.25114800      -0.18157197       0.31728932       0.04766964
Fe       4.44753000       1.10914000       0.85325000      15.14670800      12.45203200      -7.47268500      -0.03451902       0.08626656       0.07660379
Fe       3.06886000       5.29358000       5.21060000      31.03933500     -34.73641400       1.35306500       0.14174891      -0.14346943      -0.10966129
Fe       4.80801000       3.61880000       0.94850000       7.81841300       1.86551900       0.92546600      -0.38935257       0.03023269      -0.10294576
Fe       0.75179000       0.26400000       3.08937000     -19.58866100       1.56533600      18.55626500       0.19018093      -0.07758656      -0.16230943
Fe       3.22665000       5.43114000       2.39493000      -7.30714900       7.24190400      -9.20324300      -0.35237734       0.04111880      -0.11130694
Fe       0.02250000       5.10600000       5.27962000     -14.13230600     -31.71660300     -46.74427400      -0.16531476       0.08848121      -0.15981899
15
Lattice="5.664536 0.0 0.0 0.0 5.664536 0.0 0.0 0.0 5.664536" Properties=species:S:1:pos:R:3:REF_forces:R:3:MACE_forces:R:3 config_type=Fe13Si1B1 REF_energy=-108.9830283 MACE_energy=-160.43307347261106 pbc="T T T"
B        0.13992000       2.30465000       0.77632000      -2.78401400      -0.82058500       0.46110900      -0.23838304      -0.19903327       0.10722485
Si       2.50353000       2.08237000       3.22653000       0.57446500       0.76610200      -0.17485000      -0.01513704       0.10796857      -0.03852993
Fe       1.09387000       3.72736000       2.17845000      -2.33299800      -0.65384800       2.12861500      -0.32803571      -0.12154042       0.11822668
Fe       3.95659000       1.68198000       5.11388000       0.36857700       0.27726400       0.90410800       0.04615931      -0.00240231       0.27791881
Fe       3.24055000       0.05102000       1.45794000       1.85872300       1.81044900       1.22583000       0.02631009       0.26976704       0.09802655
Fe       1.11690000       0.40651000       2.78471000       0.23956900      -0.40930100      -0.23173800       0.10655099       0.07771520      -0.11876125
Fe       4.54933000       5.58716000       3.59286000      -0.31901000      -1.37235600       0.15251700       0.06878047      -0.27727152      -0.00990330
Fe       2.02209000       2.17177000       0.81391000       2.28654300       0.57567400       0.95002900       0.11845001       0.00534875       0.20726563
Fe       2.49600000       4.37528000       3.91048000       1.01885200       0.91593900      -0.12431400      -0.01880848      -0.03682961       0.05413865
Fe       1.55562000       0.82810000       4.97050000      -1.41574600      -0.55119900      -1.41023600       0.03922096       0.12307493      -0.08204424