15
Lattice="5.664536 0.0 0.0 0.0 5.664536 0.0 0.0 0.0 5.664536" Properties=species:S:1:pos:R:3:REF_forces:R:3:MACE_forces:R:3 config_type=Fe13Si1B1 REF_energy=-108.19731369 MACE_energy=-160.73609579511552 pbc="T T T"
B        4.05901000       2.70568000       1.01305000      -1.63855300      -0.82904000       0.73367400      -0.12578265      -0.05172898      -0.02247553
Si       2.82856000       0.10655000       3.62968000      -1.37485700       1.04288500       1.12851000      -0.07852813       0.00828194       0.06604728
Fe       2.58297000       1.18377000       1.20948000       0.93367000       0.14656100       0.38941200       0.13571129      -0.14459090      -0.09614579
Fe       0.38153000       0.68989000       3.08804000       0.88723900       3.84366500       0.15858400       0.13179120       0.08829783       0.05514856
Fe       1.54589000       2.38203000       4.72041000      -2.07199500      -0.40415400      -0.21731400      -0.20606192      -0.21926521      -0.02045741
Fe       0.00965000       3.55673000       0.57847000       1.87002200       0.46818400      -0.57360300       0.00707246       0.04021148       0.02905638
Fe       4.86453000       2.71686000       2.75028000       1.57660800      -1.70083300       1.51404400       0.10089973      -0.12896823       0.17787577
Fe       4.62966000       0.98828000       5.06676000       0.07922500       1.31640700       1.29952100      -0.13491911       0.12241725       0.02337403
Fe       0.62475000       4.47163000       2.76945000       1.95380600      -3.21231900      -1.53544400       0.19984532       0.02457159      -0.10395880
Fe       4.87774000       4.67993000       4.41653000      -0.64493200      -0.53503200       0.30435400      -0.10536037       0.04859461      -0.06581553
Fe       3.59664000       2.87221000       4.83153000       0.23532500      -0.37357900      -1.60523300       0.05255731      -0.02091607      -0.02841610
Fe       0.66156000       0.50203000       0.73880000      -0.79576700      -0.85035100      -0.29863700      -0.04498993      -0.12336763      -0.04049150
Fe       2.16986000       4.37529000       0.15492000      -0.00013300       0.94038800       0.69583500       0.15796111       0.15042789       0.12284142
Fe       3.84648000       4.71531000       2.05312000       0.75417200       0.77170900      -2.19861800       0.11610481       0.17528897      -0.12066666
Fe       2.60819000       2.98871000       2.55518000      -1.76382900      -0.62449100       0.20491400      -0.20630113       0.03074546       0.02408387
15
Lattice="5.664536 0.0 0.0 0.0 5.664536 0.0 0.0 0.0 5.664536" Properties=species:S:1:pos:R:3:REF_forces:R:3:MACE_forces:R:3 config_type=Fe13Si1B1 REF_energy=-108.15566798 MACE_energy=-160.77664589804687 pbc="T T T"
B        4.14873000       2.95379000       1.06658000       0.16200100      -0.29917000      -0.39394100       0.03101722      -0.05413692      -0.08778674
Si       3.70970000       1.75376000       4.70342000       2.39954500       1.99334400       0.69658000       0.03330278       0.09995339      -0.03935629
Fe       0.77141000       5.48369000       0.61772000       0.15863900      -0.70463600       0.73580300       0.11149053      -0.13305899       0.10930216
Fe       2.70222000       5.62328000       2.66112000      -2.84701800       1.11988600      -2.77526600      -0.31319801       0.09239840      -0.08939357
Fe       2.40590000       1.49012000       0.76033000       2.44811900      -1.09619800       2.05304000       0.22587531      -0.06541391       0.08202941
Fe       0.05981000       0.25678000       4.08407000      -0.72088300      -0.40435400      -1.12965000       0.02636812       0.00661010      -0.06398159
Fe       2.69016000       5.46683000       4.60121000      -0.81406600      -1.20768000       2.79556400      -0.08821701      -0.00397309       0.03763399
Fe       1.47386000       1.76151000       4.03878000       0.25632200       2.31886200      -0.70750300       0.09361678       0.22139311      -0.05936129
Fe       5.58209000       3.47185000       2.53703000       2.04828400       0.56513400      -0.37619200       0.31196491       0.07711982       0.15917883
Fe       2.39981000       3.74553000       0.37431000      -0.23425500       0.56240000       0.37900500       0.03078777      -0.02677865       0.06289329
Fe       4.35312000       1.55651000       2.64463000       0.99871600      -1.26274600      -2.03362100       0.04101186      -0.08811651      -0.15650005
Fe       4.71996000       4.32124000       4.97431000      -0.09930100      -2.16645100       0.36829600      -0.01154188      -0.30846794      -0.07432790
Fe       4.35696000       5.05523000       1.41829000       0.42683500       0.31250100      -0.90165400      -0.07571228       0.14629323      -0.07601687
Fe       0.47139000       2.05266000       0.60057000      -2.75315200       0.98470800      -0.10508100      -0.17606543       0.15019657      -0.00253529
Fe       3.41003000       3.62129000       2.91823000      -1.42978400      -0.71560000       1.39462200      -0.24070066      -0.11401863       0.19822191
15
Lattice="5.664536 0.0 0.0 0.0 5.664536 0.0 0.0 0.0 5.664536" Properties=species:S:1:pos:R:3:REF_forces:R:3:MACE_forces:R:3 config_type=Fe13Si1B1 REF_energy=-107.93807169 MACE_energy=-160.57450501239867 pbc="T T T"
B        3.89991000       3.42526000       0.45422000       0.11547000      -0.03553900       1.12451100       0.15440973      -0.01264146       0.20101667
Si       3.48762000       0.16630000       4.61337000       0.32574800       0.46308000      -0.01786500      -0.03091612      -0.01287251       0.04916741
Fe       2.84778000       1.82037000       0.82228000      -0.98232500      -1.42221600      -1.89337000      -0.02743760      -0.10953946      -0.22715111
Fe       1.34857000       0.81784000       2.30075000      -0.53643500       0.46265000      -1.19653800      -0.00445294       0.08309457      -0.15091122
Fe       1.57642000       1.26355000       4.33118000       0.04619000       0.17232100       0.29400800       0.05421188      -0.02127371       0.15125876
Fe       0.65713000       2.94926000       0.95396000      -1.72120200      -1.22782100       0.66296100      -0.25466510      -0.13049890       0.09570809
Fe       4.05988000       1.97076000       2.38888000       1.24013900      -1.25976700       1.55714700       0.07528169      -0.01824633       0.04704240
Fe       5.41523000       1.91313000       4.86891000      -2.57043500      -0.52568200      -0.40262900      -0.32749535      -0.06742777      -0.04557257
Fe       1.35795000       4.61467000       3.62292000      -1.17710100      -0.19986100       1.26666800      -0.06246303       0.00277122       0.07604583
Fe       4.95776000       4.27854000       4.85033000       2.20080800       0.77958800      -0.24901600       0.09926772       0.06936712       0.04528449
Fe       2.90817000       3.15860000       4.25698000      -0.87756600      -0.39846100       1.25184100       0.02165686      -0.04507937       0.07625609
Fe       4.97903000       5.64594000       1.36431000      -0.69131800      -0.04726100      -0.44322300      -0.16352104       0.03310109      -0.13869535
Fe       1.21860000       5.04312000       0.28941000      -0.01329800       1.97019200      -1.42146800       0.15115120       0.19455009      -0.11581257
Fe       4.19049000       3.99341000       2.69223000       2.99720200       1.59092800      -0.45710200       0.15882060       0.10591870      -0.08343994
Fe       2.24232000       4.14646000       1.80095000       1.64412400      -0.32215200      -0.07592500       0.15615152      -0.07122329       0.01980303
15
Lattice="5.664536 0.0 0.0 0.0 5.664536 0.0 0.0 0.0 5.664536" Properties=species:S:1:pos:R:3:REF_forces:R:3:MACE_forces:R:3 config_type=Fe13Si1B1 REF_energy=-111.97852358 MACE_energy=-161.22898528104741 pbc="T T T"
B        0.06916000       5.66432000       5.18689000       0.12008200      -0.64043800       0.01360000       0.06314856      -0.17485321       0.06083235
Si       0.02740000       2.72248000       2.59682000      -0.95092500       0.36379500       0.29566700      -0.12124368       0.03895547      -0.00387499
Fe       0.14116000       5.54768000       2.85133000       0.08282300      -0.00674100       0.52027800      -0.10317705       0.05244555      -0.00144372
Fe       5.56722000       2.97052000       5.53670000      -0.67309900       0.24460700       0.18564600      -0.02099440      -0.01398926       0.07923812
Fe       2.56501000       0.00405000       5.40440000       0.68434000      -0.27592000       0.60718700       0.10304651      -0.04228227       0.10020138
Fe       2.97079000       2.77487000       5.60913000       0.61990200      -0.30745300       0.59180600      -0.06367714      -0.03431972       0.02469159
Fe       3.14055000       2.58779000       2.39876000      -0.26535600       0.46856000       0.15364600      -0.05015676       0.04450006       0.06380190
Fe       1.27023000       1.29362000       1.29220000       0.59662900      -0.36144800      -0.82067800      -0.01470750       0.05013068      -0.11374261
Fe       1.26884000       1.40412000       4.24821000      -0.00500300       0.79776500      -0.57479700       0.02451433       0.22697985      -0.08814457
Fe       1.43809000       4.26211000       1.36341000       0.07769500      -0.05884300      -0.22592600       0.02296893      -0.06284948      -0.00697426
Fe       1.52070000       4.14480000       4.13170000      -0.18321100      -0.27105400      -0.71528600       0.00062999      -0.16112814      -0.12312612
Fe       4.46936000       1.09579000       0.98330000      -0.11971100       0.01004100       0.24750400       0.05978531       0.03677162       0.02937257
Fe       4.16783000       1.22547000       4.11325000       0.42899800      -0.08684700      -0.08842400       0.14595066       0.02157806       0.01765974
Fe       4.22673000       4.46813000       1.30140000       0.09689500      -0.37725000      -0.41990000       0.01644883      -0.04863566      -0.00090808
Fe       4.20815000       4.21553000       4.01300000      -0.51005900       0.50122500       0.22967700      -0.06253660       0.06669646      -0.03758328
15
Lattice="5.664536 0.0 0.0 0.0 5.664536 0.0 0.0 0.0 5.664536" Properties=species:S:1:pos:R:3:REF_forces:R:3:MACE_forces:R:3 config_type=Fe13Si1B1 REF_energy=-111.93959828 MACE_energy=-161.1469772518647 pbc="T T T"
B        0.52210000       0.05440000       5.04153000      -0.83789800      -0.96014800      -0.42271900      -0.08502834      -0.06358126      -0.04899025
Si       5.59498000       2.75302000       2.63746000      -0.41285400      -0.16722200       0.32382300      -0.04761710      -0.05575936      -0.05931714
Fe       0.17766000       0.05624000       2.77011000      -0.22089500       0.44737300       1.17937900      -0.07225288       0.05546947       0.10267773
Fe       5.59682000       2.78032000       5.61495000      -0.22239300       0.41310500      -0.03657000       0.03313922       0.01196833      -0.05450800
Fe       2.71989000       5.37982000       5.43745000       0.17724800       0.17436200       0.47840000      -0.04772417       0.11737656       0.01741048
Fe       2.70157000       2.72483000       5.65192000       0.89303700       0.73165300       0.81071700       0.14274363       0.13681485       0.08154122
Fe       2.97278000       2.68063000       2.60608000       0.64664100       0.39382500      -0.89779500       0.14447788       0.13285939      -0.16786844
Fe       1.04462000       1.15381000       0.98518000       0.85892600      -0.28038300       0.02628300       0.10479765       0.04211703       0.03755680
Fe       1.65813000       1.50296000       3.98982000      -0.38663100      -0.26210300      -0.11433700      -0.10559621       0.00229147       0.07155774
Fe       1.30631000       4.30849000       1.24352000      -0.41412900       0.11159100       0.24697100      -0.06705822      -0.05989701       0.09307023
Fe       1.58576000       4.06734000       3.99489000      -1.17533100      -0.00634600      -0.85725300      -0.18617854      -0.06940428      -0.10237661
Fe       4.12820000       1.13618000       1.10587000       0.62554700       0.31979100       0.22031500       0.14860116       0.04273410       0.05656254
Fe       4.25787000       1.24949000       4.17529000      -0.08913900      -0.07677300       0.23295600      -0.00484874       0.03682423       0.05952223
Fe       4.35495000       4.45297000       1.34581000      -0.13361000      -0.53467800      -0.51744000       0.00027744      -0.20115028      -0.01019758
Fe       4.41108000       4.43949000       4.32316000       0.69148200      -0.30404700      -0.67272800       0.04226721      -0.12866325      -0.07664096
15
Lattice="5.664536 0.0 0.0 0.0 5.664536 0.0 0.0 0.0 5.664536" Properties=species:S:1:pos:R:3:REF_forces:R:3:MACE_forces:R:3 config_type=Fe13Si1B1 REF_energy=-111.86184603 MACE_energy=-160.97954795298787 pbc="T T T"
B        1.50863000       1.78767000       4.90152000      -0.44122900      -0.13378600       0.30200900       0.03170729      -0.01374224       0.01979005
Si       4.79549000       2.24346000       2.10133000      -2.02834800      -2.06166200      -2.37230900       0.01626851      -0.04655406      -0.16529828
Fe       3.20380000       0.75276000       3.12970000      -0.26094900      -0.46491400       0.88121400       0.02897699       0.05713296       0.18932465
Fe       2.86828000       3.52346000       0.83472000       0.63525800      -0.40693500      -0.10677300       0.03211414      -0.12280174      -0.09764691
Fe       0.30208000       0.41203000       3.59178000       0.43152100       1.99959300       0.71104900      -0.00962505       0.16673570       0.02078766
Fe       4.64149000       4.82814000       4.64319000      -2.32204000      -0.32641000       1.26424000      -0.39026811       0.06655780       0.04346529
Fe       1.38623000       5.04883000       1.95913000       0.13404600      -0.76597900       0.26900800       0.02449120      -0.16029035       0.11410996
Fe       0.01651000       0.69762000       0.56316000       0.43357300       0.50429600      -0.59615700      -0.00244949       0.16011396      -0.03337079
Fe       1.71843000       1.81951000       1.96274000      -0.50569400       0.44278300      -1.08150200      -0.27381740       0.07441842      -0.08356308
Fe       2.49328000       3.31853000       3.75571000       0.60663900       0.53722000       0.22889400       0.10046852       0.06149433       0.09873193
Fe       0.35204000       3.39611000       0.17394000       0.28417100      -0.58935200       0.45847800       0.06357638      -0.13082124       0.22731861
Fe       0.11270000       3.44811000       3.40342000       2.52442400       0.78461300       1.86263000       0.15836483      -0.07989086      -0.01458902
Fe       4.37430000       4.86511000       1.96411000       0.02203300      -0.44143500      -0.21812100       0.17302302      -0.12513458       0.03781149
Fe       1.91304000       5.29856000       5.45252000       0.85584700       1.12077600      -1.36953800       0.15626511       0.10114058      -0.31262461
Fe       3.73798000       1.56980000       5.38787000      -0.36925300      -0.19880800      -0.23312100      -0.10909594      -0.00835866      -0.04424696
15
Lattice="5.664536 0.0 0.0 0.0 5.664536 0.0 0.0 0.0 5.664536" Properties=species:S:1:pos:R:3:REF_forces:R:3:MACE_forces:R:3 config_type=Fe13Si1B1 REF_energy=-121.96103282 MACE_energy=-160.9900767765377 pbc="T T T"
B        1.89945000       0.62627000       3.85277000      -2.50069800       2.16966800      -1.53918900      -0.16092423       0.18580461       0.05320660
Si       0.20120000       2.04269000       2.64503000       1.02931600      -0.66199100      -2.72694900      -0.02959589      -0.00977301      -0.16298428
Fe       2.66066000       5.42797000       2.26357000       0.53979700      -0.03646200      -1.31830900       0.08205767      -0.13816950      -0.10977261
Fe       2.90276000       2.67008000       2.15492000      -1.83815700      -0.38139400      -2.84113500      -0.23299091       0.05119886      -0.09947041
Fe       3.76617000       1.41579000       3.61058000       1.59818700      -1.99316500       0.96094000       0.32745490      -0.06134736       0.02305737
Fe       4.35629000       3.78643000       3.20548000      -0.08184500       1.05317100       0.76552100      -0.05852970       0.05922535       0.05643909
Fe       4.47628000       4.06991000       0.64852000      -0.83953300      -0.22453300       0.86736600      -0.20902197       0.02389022       0.04155227
Fe       4.19523000       1.12987000       0.84517000       0.20926900       0.78044000      -1.95195400       0.10215803      -0.00530547      -0.11480044
Fe       1.20944000       0.98558000       0.54562000       0.36331500       0.64694800       1.15320100       0.04041841       0.09311530       0.05952172
Fe       2.93679000       5.24715000       4.85612000       1.78737200      -1.05335100       3.04321700       0.02736921      -0.02705600       0.10399958
Fe       2.46429000       3.02068000       4.78866000      -0.08418600      -0.93215200       0.71303400      -0.00027831      -0.15359640      -0.01043452
Fe       5.64539000       2.77685000       4.69631000       0.33002600      -0.76378800       3.33994500       0.09320198      -0.10321432       0.14225778
Fe       1.14045000       3.92385000       0.99225000      -0.27335200       0.02348800       0.25089500       0.03117592       0.04457162      -0.06516281
Fe       0.17432000       5.38924000       4.59788000      -0.87103600      -0.20642700       0.99417600      -0.12195860      -0.15083494       0.13010468
Fe       5.41134000       5.44443000       2.36685000       0.63152700       1.57954900      -1.71076000       0.10946349       0.19149105      -0.04751401
15
Lattice="5.664536 0.0 0.0 0.0 5.664536 0.0 0.0 0.0 5.664536" Properties=species:S:1:pos:R:3:REF_forces:R:3:MACE_forces:R:3 config_type=Fe13Si1B1 REF_energy=-109.57699008 MACE_energy=-160.9392435733336 pbc="T T T"
B        1.60964000       1.20953000       3.30762000      -0.01479600      -0.54483200       0.36412700      -0.00796109      -0.02459870       0.01038811
Si       1.95419000       3.78303000       0.40477000       2.58923000       0.78612200      -1.61162900       0.10906902       0.02331828      -0.02690505
Fe       3.57229000       4.89724000       1.78218000      -0.69680300       0.94883800       2.04020100      -0.12894751       0.02773524       0.11086947
Fe       3.21513000       2.00319000       1.86162000       1.30615200      -1.04311700      -1.34636300       0.11439030      -0.06118702      -0.05252478
Fe       5.12136000       1.05340000       3.05836000       0.48907600      -0.57242700       0.35981000       0.07227660      -0.16942652       0.09508298
Fe       5.33303000       3.41064000       3.19935000      -1.19050900       0.64225800       0.16946300      -0.11333963       0.09200638      -0.05857624
Fe       4.69645000       3.56410000       0.59057000       0.42357200      -2.45414500       1.39631500       0.05863702      -0.13538462       0.12426776
Fe       5.00397000       0.79608000       0.67759000       0.28054300       1.18762000       0.69531900      -0.05436333       0.09438034      -0.00923847
Fe       1.02131000       2.39370000       1.67631000      -1.48205000      -1.99677700       1.89497700      -0.09381489      -0.02397229       0.03321265
Fe       4.49205000       4.87623000       4.87240000      -1.22864200       1.13873400      -2.26444700      -0.15732452       0.06669246      -0.11618632
Fe       3.40200000       1.47027000       4.46233000      -0.01871000      -0.18409200       0.67173000       0.00745355      -0.09348324       0.12164061
Fe       0.59504000       2.14210000       5.17631000       0.66645200      -0.32293300      -3.32851400       0.17006727      -0.03074529      -0.34917734
Fe       1.14446000       5.07983000       4.43636000      -0.37358200       1.06798600      -0.87155500       0.01399238       0.07864026      -0.06803652
Fe       2.52599000       3.18146000       3.48749000      -0.80261000       1.79870400       1.25168000      -0.09303533       0.26845926       0.12728021
Fe       0.91985000       5.18762000       1.86613000       0.05267700      -0.45193900       0.57888600       0.10290015      -0.11243453       0.05790292
15
Lattice="5.664536 0.0 0.0 0.0 5.664536 0.0 0.0 0.0 5.664536" Properties=species:S:1:pos:R:3:REF_forces:R:3:MACE_forces:R:3 config_type=Fe13Si1B1 REF_energy=-111.24757227 MACE_energy=-161.07146280621635 pbc="T T T"
B        2.53656000       2.62317000       3.66583000      -0.11566700      -0.22978700       0.53017200      -0.00234605      -0.02687276       0.05097770
Si       0.67483000       4.27329000       2.69225000       0.92910600       0.68145900       0.71622000       0.11207226       0.01977412      -0.03133002
Fe       5.14560000       5.37767000       1.05479000      -0.04263700       0.54874800      -0.34508500      -0.02609865      -0.01377715       0.07237792
Fe       5.17725000       2.96978000       1.28337000      -0.94481700       0.15150400      -1.65556500      -0.10546188       0.04395812      -0.08360735
Fe       4.74580000       3.13666000       4.02461000      -0.25444200      -0.82574700      -0.11998600       0.01285471      -0.03549371      -0.12708626
Fe       0.33821000       1.51110000       2.57588000       1.22080500      -1.49602800       0.46012600       0.26397841      -0.07901764       0.07398808
Fe       3.09808000       4.41167000       2.55098000       1.58954700      -0.62340300      -0.59486000       0.22502261      -0.04260008      -0.02756054
Fe       4.73088000       0.16933000       4.32731000       1.21238200      -0.98254900      -0.92008400       0.07519805      -0.19379517      -0.08607430
Fe       3.65998000       1.37781000       0.06620000      -0.53114300       0.39644200       0.40797800      -0.08760197       0.22433935      -0.11486075
Fe       3.63898000       1.27668000       2.55773000      -0.56432500       0.60761700      -1.09420600      -0.04033411       0.02343553      -0.17550086
Fe       3.30156000       4.03302000       5.51710000       0.66273100       0.68309200      -0.51252300       0.10156808       0.01273685      -0.01387832
Fe       2.04972000       2.93776000       1.03536000      -1.23701100      -0.98796000       1.66434700      -0.15777799      -0.06769839       0.28183910
Fe       2.16302000       5.60665000       3.99134000      -0.76618900       1.59088200       1.80303200      -0.07231731       0.14752564       0.11990224
Fe       0.95543000       1.84266000       4.95473000       0.27866900      -0.07002100       0.06014100      -0.03610943      -0.08579234       0.05550521
Fe       2.02568000       0.02468000       0.99960000      -1.43701000       0.55575000      -0.39970700      -0.26264673       0.07327762       0.00530815
15
Lattice="5.664536 0.0 0.0 0.0 5.664536 0.0 0.0 0.0 5.664536" Properties=species:S:1:pos:R:3:REF_forces:R:3:MACE_forces:R:3 config_type=Fe13Si1B1 REF_energy=-108.79062395 MACE_energy=-160.86154439347854 pbc="T T T"
B        5.36400000       3.87568000       4.45905000       0.44648400       0.57032200       0.28604800       0.03112184       0.03836529       0.01276411
Si       3.93387000       4.96403000       3.15711000      -4.30606800      -2.31482200      -2.68264300      -0.19877954      -0.09209922      -0.14298644
Fe       3.00216000       0.92096000       1.44117000      -0.76996800       0.42082500      -0.07835300       0.00151792      -0.01312948      -0.01775182
Fe       1.34518000       5.62588000       2.73234000       2.41172500       0.19969700       0.20083700       0.28603300      -0.08652435       0.06957037
Fe       0.44730000       2.09377000       4.98703000       1.17940300       0.68255400       0.66504100       0.17581734       0.03162012      -0.06238903
Fe       0.30923000       3.79563000       2.39919000      -0.97580900      -1.20085800      -1.00234600      -0.10881528       0.06957341      -0.05645455
Fe       0.18648000       1.06356000       1.31692000      -0.60348600       1.79501500       0.12312700      -0.00870167       0.20551607       0.07209094
Fe       4.00265000       2.83038000       0.00570000       0.03088500      -0.70677300      -0.45368100      -0.02192912      -0.11124562      -0.02651192
Fe       5.37135000       0.30945000       4.05759000       2.43746500       1.21842000       2.05861100      -0.14276363      -0.03154359       0.04117210
Fe       2.32985000       3.12186000       1.52540000       0.40818200       0.55373600       0.67629300      -0.03072749       0.11119026       0.08193488
Fe       2.77320000       0.82160000       4.63749000       0.11143500       0.28254000       0.06072400       0.13318673       0.07438328      -0.06640309
Fe       1.20304000       4.94889000       5.64649000       0.50304000      -0.54997900       0.60819900      -0.00081325      -0.02121433       0.23066512
Fe       4.43330000       2.29054000       2.94368000      -1.10290800       0.42652200       0.72577900      -0.17648202       0.06725867       0.17126332
Fe       4.45738000       5.14386000       0.73674000       0.07827300      -0.88309100      -1.20270400       0.02767252      -0.20767522      -0.11309022
Fe       2.20236000       3.55424000       4.11335000       0.15134500      -0.49410700       0.01507000       0.03366265      -0.03447530      -0.19387375
15
Lattice="5.664536 0.0 0.0 0.0 5.664536 0.0 0.0 0.0 5.664536" Properties=species:S:1:pos:R:3:REF_forces:R:3:MACE_forces:R:3 config_type=Fe13Si1B1 REF_energy=113.06017811 MACE_energy=-160.80960756881797 pbc="T T T"
B        1.39848000       0.19193000       0.61048000      -4.08297800       9.29302800       8.69098400       0.01990094       0.16267033       0.23850400
Si       2.92490000       2.16030000       2.14060000      -2.63496600       9.58037000      -0.49561900       0.02668685      -0.06915560      -0.03019213
Fe       2.86073000       2.70503000       5.26584000       4.32356800      10.20896900      -4.70309300       0.14032171      -0.13427351      -0.01884908
Fe       4.47802000       3.64784000       3.04881000      -8.75739200       8.66530300      12.20431400      -0.00160917      -0.05269503       0.31250870
Fe       0.21576000       2.05514000       5.23160000     -18.24380600     -12.70694800      22.88283100       0.32813712      -0.01433262      -0.05012553
Fe       0.44166000       2.36030000       2.32519000       9.91181000      13.04098500      -5.34425400       0.17097093      -0.11554084      -0.08820589
Fe       2.03954000       3.82953000       1.07367000      -9.51630500       5.90074000      24.04305300      -0.18922903       0.00608301       0.05846854
Fe       1.39295000       3.86962000       3.86875000       5.08493300      -5.56046400     -11.44166200       0.05298096      -0.04139411      -0.07027855
Fe       4.42805000       1.04262000       3.76613000      10.93879500       4.90624100      -3.25114800      -0.13515649       0.22448158       0.02016384
Fe       4.44753000       1.10914000       0.85325000      15.14670800      12.45203200      -7.47268500      -0.00982680       0.06414097       0.05657771
Fe       3.06886000       5.29358000       5.21060000      31.03933500     -34.73641400       1.35306500       0.09287127      -0.09621752      -0.08048502
Fe       4.80801000       3.61880000       0.94850000       7.81841300       1.86551900       0.92546600      -0.26992720       0.04606873      -0.05715420
Fe       0.75179000       0.26400000       3.08937000     -19.58866100       1.56533600      18.55626500       0.12689075      -0.05060981      -0.12576362
Fe       3.22665000       5.43114000       2.39493000      -7.30714900       7.24190400      -9.20324300      -0.24635565       0.03245711      -0.07078467
Fe       0.02250000       5.10600000       5.27962000     -14.13230600     -31.71660300     -46.74427400      -0.10665619       0.03831731      -0.09438409
15
Lattice="5.664536 0.0 0.0 0.0 5.664536 0.0 0.0 0.0 5.664536" Properties=species:S:1:pos:R:3:REF_forces:R:3:MACE_forces:R:3 config_type=Fe13Si1B1 REF_energy=-108.9830283 MACE_energy=-160.8843089126133 pbc="T T T"
B        0.13992000       2.30465000       0.77632000      -2.78401400      -0.82058500       0.46110900      -0.15269649      -0.13826356       0.07064976
Si       2.50353000       2.08237000       3.22653000       0.57446500       0.76610200      -0.17485000      -0.01335786       0.07597425      -0.02694710
Fe       1.09387000       3.72736000       2.17845000      -2.33299800      -0.65384800       2.12861500      -0.22641725      -0.08269639       0.06831926
Fe       3.95659000       1.68198000       5.11388000       0.36857700       0.27726400       0.90410800       0.03913899      -0.00095488       0.18749739
Fe       3.24055000       0.05102000       1.45794000       1.85872300       1.81044900       1.22583000      -0.00774280       0.17333934       0.05239820
Fe       1.11690000       0.40651000       2.78471000       0.23956900      -0.40930100      -0.23173800       0.07081055       0.07540957      -0.09533419
Fe       4.54933000       5.58716000       3.59286000      -0.31901000      -1.37235600       0.15251700       0.05806775      -0.20282446      -0.00290872
Fe       2.02209000       2.17177000       0.81391000       2.28654300       0.57567400       0.95002900       0.05531351      -0.01563242       0.13628450
Fe       2.49600000       4.37528000       3.91048000       1.01885200       0.91593900      -0.12431400      -0.00256557      -0.04336917       0.03410322
Fe       1.55562000       0.82810000       4.97050000      -1.41574600      -0.55119900      -1.41023600       0.02919949       0.09747198      -0.04062706