1
Lattice="18.0 0.0 0.0 0.0 18.0 0.0 0.0 0.0 18.0" Properties=species:S:1:pos:R:3:REF_forces:R:3:MACE_forces:R:3 config_type=IsolatedAtom REF_energy=-3.283081 MACE_energy=-3.283081 pbc="T T T"
Fe       0.00000000       0.00000000       0.00000000       0.00000000       0.00000000       0.00000000      -0.00000000      -0.00000000      -0.00000000
1
Lattice="18.0 0.0 0.0 0.0 18.0 0.0 0.0 0.0 18.0" Properties=species:S:1:pos:R:3:REF_forces:R:3:MACE_forces:R:3 config_type=IsolatedAtom REF_energy=-0.81049333 MACE_energy=-0.81049333 pbc="T T T"
Si       0.00000000       0.00000000       0.00000000       0.00000000       0.00000000       0.00000000      -0.00000000      -0.00000000      -0.00000000
1
Lattice="18.0 0.0 0.0 0.0 18.0 0.0 0.0 0.0 18.0" Properties=species:S:1:pos:R:3:REF_forces:R:3:MACE_forces:R:3 config_type=IsolatedAtom REF_energy=-0.27559471 MACE_energy=-0.27559471 pbc="T T T"
B        0.00000000       0.00000000       0.00000000       0.00000000       0.00000000       0.00000000      -0.00000000      -0.00000000      -0.00000000
10
Lattice="9.0 0.0 0.0 0.0 9.0 0.0 0.0 0.0 9.0" Properties=species:S:1:pos:R:3:REF_forces:R:3:MACE_forces:R:3 config_type=Fe5B1Si4 REF_energy=-44.58554767 MACE_energy=-20.240866798778637 pbc="T T T"
Fe       3.50176000       8.99673000       3.09396000       0.95435000      -0.45803800       0.21474200       0.29598987      -0.51129416      -0.63692431
Fe       6.43801000       1.81225000       6.74888000       1.10970900      -0.66476800      -1.17007400       0.12014564      -0.15194411      -0.17725622
Fe       2.41193000       0.16613000       4.88253000       0.30913200      -0.89996000       0.17011800      -0.33927252      -0.16698152       0.74168360
Fe       8.52164000       3.22369000       0.34244000      -0.58790500      -0.47306700      -0.37861700      -0.00016471      -0.00011161      -0.00020497
Fe       5.66627000       2.92739000       3.87411000       4.77509600       2.80733600       2.40000400       0.26304229       1.05155230       0.31816248
B        5.18442000       1.13758000       3.40139000      -0.73957100       0.38065100       0.44676100       0.04034057      -0.25378336      -0.06861726
Si       7.10242000       1.59600000       3.97694000       2.28029300      -3.67324000       1.18634800       0.79043637      -0.76034054       0.24953684
Si       7.70822000       8.86280000       6.25904000      -0.73207200       1.84563600      -0.48266000      -0.11183832       0.19392934      -0.02659657
Si       3.91832000       3.09724000       3.40175000      -6.85054500      -1.08983400      -1.75602400      -0.91118555       0.04760613      -0.24932003
Si       3.63788000       6.78794000       4.49538000      -0.51848800       2.22528500      -0.63059800      -0.14749364       0.55136753      -0.15046357
10
Lattice="9.0 0.0 0.0 0.0 9.0 0.0 0.0 0.0 9.0" Properties=species:S:1:pos:R:3:REF_forces:R:3:MACE_forces:R:3 config_type=Fe5B1Si4 REF_energy=-48.18464377 MACE_energy=-21.02303668487814 pbc="T T T"
Fe       7.72908000       2.13801000       3.67226000      -0.72140700       1.38590200       0.18439100       0.09517547       0.38032148      -0.12539722
Fe       2.56544000       0.37534000       3.55582000       0.62580800       1.02854400      -0.21951900       0.50404649      -0.14153531      -0.61431636
Fe       5.84797000       2.87648000       5.04299000      -0.51992300      -1.03088200      -1.60504700      -0.17985287      -0.43231784       0.40125706
Fe       2.00259000       1.62931000       5.21757000       0.16709900       0.68697000      -1.46342200      -0.15087675       0.63733010       0.25310660
Fe       3.04146000       3.03902000       3.03634000       2.84541400      -0.11631900       1.57660000       0.65442933      -0.34899370       0.31096706
B        4.26036000       4.67435000       3.72342000       0.68065500      -0.16735200      -1.56590600       0.08631342       0.01346578       0.01474910
Si       6.34493000       4.18783000       3.43892000      -0.40775000      -0.06673100      -0.63978400       0.29808428       0.12610839      -0.45386498
Si       0.98363000       2.81182000       2.85911000      -2.44913300      -1.45501500       1.18349900      -1.05095571      -0.27905711       0.17962716
Si       4.97672000       0.35177000       3.88032000      -0.44220000       1.58116100       0.17191700      -0.26179129       0.08210635      -0.00591004
Si       4.49316000       6.21641000       2.06194000       0.22143900      -1.84627800       2.37727300       0.00542763      -0.03742814       0.03978161
10
Lattice="11.0 0.0 0.0 0.0 11.0 0.0 0.0 0.0 11.0" Properties=species:S:1:pos:R:3:REF_forces:R:3:MACE_forces:R:3 config_type=Fe5B1Si4 REF_energy=-11.58855075 MACE_energy=-20.573989095588853 pbc="T T T"
Fe       8.76471000       0.00946000       6.88513000      -0.22819700       0.12237200      -0.55543600      -0.00000000      -0.00000000      -0.00000000
Fe       2.63377000       1.33277000       3.45207000      -0.77576300      -0.08136400      -0.00027500       0.20608888       0.26550586      -0.11224979
Fe       9.34605000       7.55219000       3.04608000      -1.57311900      -1.03473800      -0.15487700      -0.08711547      -0.01884147       0.00123324
Fe       6.36389000       7.12183000       3.09324000       1.09683100       0.04242100      -0.12816300       0.09209522       0.01329038      -0.00145640
Fe       1.35866000       0.14865000       4.85122000       1.24564900       1.43265900      -2.24078300      -0.43471148      -0.15331820       0.03889096
B        0.74424000       4.87887000       2.93866000      -1.13359500      -0.78566000      -1.94809000      -0.01630601      -0.03234782      -0.07868460
Si       0.41110000       1.07145000       2.73658000       1.34178700       0.50456200      -0.25058800       0.39189844      -0.06832955       0.15508456
Si       0.39736000       3.73439000       0.50956000      -1.07905800      -1.52336200       2.18566600      -0.18803184      -0.12054666       0.11750702
Si       9.29283000       2.08457000       0.89045000       2.55214100       0.43757800       0.40081500       0.23328802       0.13835597      -0.00509515
Si       2.63700000       1.37373000       1.21644000      -1.44667700       0.88553200       2.69173100      -0.19720576      -0.02376849      -0.11522984
10
Lattice="11.0 0.0 0.0 0.0 11.0 0.0 0.0 0.0 11.0" Properties=species:S:1:pos:R:3:REF_forces:R:3:MACE_forces:R:3 config_type=Fe5B1Si4 REF_energy=-38.14997444 MACE_energy=-20.71425023767102 pbc="T T T"
Fe       0.55560000       8.19331000       7.06229000       0.60700700      -1.87987400       0.40247700       0.00922684       0.04701982      -0.02069542
Fe       0.49601000       2.54487000       7.78872000      -1.62914400       1.44061600       0.72816300      -0.47101686       0.23598678       0.13437830
Fe      10.07332000       3.88379000       9.42053000       1.49055100       0.96476400      -0.05327700       0.57687615       0.13913350       0.60747854
Fe       4.45932000       9.07691000       6.11289000       0.24660800      -0.52821700      -0.02378300       0.59695759      -0.69786635       0.02500346
Fe       9.54221000       0.53076000       0.28158000      -0.51209300       1.49842300      -0.39218500      -0.01099124       0.02415855      -0.00474824
B       10.69505000       5.70310000       8.40523000       0.71876200      -1.05034900      -0.26069900      -0.02463018      -0.08638524      -0.00130874
Si       9.01619000       3.31434000       7.76349000       0.22101700      -0.39376100      -0.82483600      -0.09472198      -0.32188341      -0.70642217
Si       1.50005000       6.10934000       7.36041000      -1.47354600       0.22179200       0.82993100      -0.00787204      -0.01612299       0.00891098
Si       8.29851000       3.23195000      10.75936000       1.25238600      -0.70606300      -0.69191000       0.02572372      -0.01945446      -0.01860532
Si       3.13187000      10.62875000       6.05729000      -0.92154800       0.43266900       0.28612000      -0.59955201       0.69541379      -0.02399138
10
Lattice="11.0 0.0 0.0 0.0 11.0 0.0 0.0 0.0 11.0" Properties=species:S:1:pos:R:3:REF_forces:R:3:MACE_forces:R:3 config_type=Fe5B1Si4 REF_energy=-39.54850766 MACE_energy=-20.96563928503759 pbc="T T T"
Fe       7.32260000       2.25273000       9.60151000      -0.81068000       1.95759200       1.52424100      -0.02439899       0.23702891       0.21695646
Fe       5.30456000       3.18059000       0.62935000       3.59407800       0.60301100       0.45004200       1.14703684       0.38071735       0.18792080
Fe       5.70290000       5.32015000      10.23784000      -0.55638700      -0.41691100      -0.58631200      -0.31284542      -0.36362525       0.17869578
Fe       7.71673000       4.32859000       0.10409000      -1.51783000      -0.48364700      -0.94636500      -0.25902862      -0.35221971      -0.07820211
Fe       5.73415000       7.17747000       8.80515000      -0.19559000      -2.26799700       1.43769300      -0.00376073       0.14901734      -0.11712672
B        3.53335000       2.44513000       3.14396000       1.80602500       1.42469000       1.46529900       0.02779420       0.02117844       0.02495753
Si       3.05847000       4.99331000       9.56994000       1.58460600       0.22347600       0.29443400       0.25294074      -0.03668138       0.12882916
Si       4.66874000       2.05360000       5.35076000      -1.23296500       0.33348000      -2.53096100      -0.02884346       0.01069765      -0.05664128
Si       3.35109000       3.37679000       0.23198000      -2.51854700       0.79060000      -0.76406600      -0.89864687       0.27649028       0.01984121
Si       4.02675000       4.41289000       2.41329000      -0.15270900      -2.16429400      -0.34400600       0.09975233      -0.32260364      -0.50523082
10
Lattice="11.0 0.0 0.0 0.0 11.0 0.0 0.0 0.0 11.0" Properties=species:S:1:pos:R:3:REF_forces:R:3:MACE_forces:R:3 config_type=Fe5B1Si4 REF_energy=-30.22050192 MACE_energy=-20.39086756425068 pbc="T T T"
Fe       7.51027000      10.11418000       2.18625000      -1.69790900       1.72973200      -1.19644900      -0.84854903       0.89025726      -0.12624800
Fe       6.52329000       1.24583000       0.98294000       2.87583100      -1.88416600       0.59355300       0.33152865      -0.17772936       0.24607115
Fe       8.50320000       0.98219000       3.23617000       1.14940800      -1.93965800      -1.01181700       0.25251597      -1.04765653       0.00167075
Fe       8.81725000       8.60479000       1.96311000       1.70133000      -1.33465300       0.85149000       0.78999120      -0.81094289       0.54183154
Fe       9.16079000       2.26416000       1.64872000      -0.92180800       1.06168500      -1.01542500       0.21470979       0.59532903      -0.66323023
B        8.94441000       4.16897000      10.47399000      -1.12511400       0.54375800       0.63670800      -0.05278421       0.04883141      -0.05066358
Si      10.42398000       4.23416000       1.05026000      -1.52480000      -0.05410100      -1.01659500      -0.14958687      -0.20451218       0.04163567
Si       7.56198000       2.31002000       4.34386000      -1.29363800       1.80115300       0.97958300      -0.49475808       0.69711567       0.57614161
Si       8.52672000       8.61906000      10.86161000      -0.94443500       0.65405000      -0.31886100      -0.11235279       0.03532929      -0.61305068
Si       6.81456000       4.96874000       9.06450000       1.78113500      -0.57779900       1.49781200       0.06928537      -0.02602169       0.04584176
10
Lattice="11.0 0.0 0.0 0.0 11.0 0.0 0.0 0.0 11.0" Properties=species:S:1:pos:R:3:REF_forces:R:3:MACE_forces:R:3 config_type=Fe5B1Si4 REF_energy=-36.59236839 MACE_energy=-20.5160025116542 pbc="T T T"
Fe       3.58274000      10.79851000      10.73667000       0.11897900       0.22630100      -0.04976800      -0.00000000      -0.00000000      -0.00000000
Fe       1.22875000       2.49300000       7.21708000       2.26097500      -1.53625800       1.07649700       0.30721426      -0.15896508       0.21513518
Fe       0.83190000       3.93076000       3.48688000       1.35086000      -1.69250200       0.45489600       0.48234833      -0.67899970      -0.81516762
Fe       9.39560000       2.93064000       6.23859000      -2.27414300      -0.91782300      -0.86979000      -0.39640530      -0.21501708      -0.12949222
Fe       1.68648000       4.78764000       5.33563000      -2.42207400      -1.78775100      -0.34755700      -0.16492516      -0.02126245       0.59101334
B        0.09146000       3.23421000       6.27209000       0.33374200       3.18943500      -3.08739300       0.29310299       0.49885902      -0.48339321
Si      10.14804000       1.29848000       4.70398000      -0.27194000       2.69997500       0.88966000      -0.00790128       0.17772877       0.14522317
Si       7.91960000       4.68330000       6.38399000       1.00571800      -0.89791700      -1.90531900      -0.04127629      -0.04467049      -0.23729944
Si       7.87407000       3.80560000       3.83659000       1.69436900       0.65761100       2.09344900       0.29915050       0.20097208       0.31569792
Si      10.18862000       4.97429000       4.13294000      -1.79648600       0.05892800       1.74532400      -0.77130805       0.24135493       0.39828288
10
Lattice="11.0 0.0 0.0 0.0 11.0 0.0 0.0 0.0 11.0" Properties=species:S:1:pos:R:3:REF_forces:R:3:MACE_forces:R:3 config_type=Fe5B1Si4 REF_energy=-37.97135349 MACE_energy=-20.456171565769008 pbc="T T T"
Fe       9.03194000       7.52207000       3.76953000      -0.41692800       1.06213800       1.36215600       0.12043636      -0.16564664      -0.21724076
Fe      10.13763000      10.16701000       4.97367000      -1.48414600      -0.40832500      -0.11078200       0.64778919      -0.17976520       0.08943749
Fe       4.72985000       7.86062000       7.54580000      -0.46341600      -0.84233600       0.25668000      -0.13547357      -0.30358052      -0.08236646
Fe       8.27206000       8.93115000       5.41966000       2.10203900       0.88604100      -1.49179500      -0.40636408       0.04813311       0.28194353
Fe       4.77388000       2.87329000       5.35297000      -0.27504900      -0.53922100      -0.84728100       0.03868380      -0.29997627      -0.43228684
B        4.61354000       3.86066000       6.74103000      -0.14362800      -0.14915200      -1.57005500      -0.03135399       0.26873089       0.42756730
Si       1.64433000       3.13639000       3.91354000       3.75707800      -0.87803400      -0.36408100       0.60901896      -0.16564270      -0.27472027
Si       3.74801000       5.66030000       6.94882000       0.45210300       0.36957600       0.68487900       0.11935513       0.33556597       0.08304622
Si       8.69515000       0.60160000       4.24738000      -0.18983800      -0.10747800       0.51028900      -0.36019398       0.29958481      -0.15376908
Si      10.87890000       3.62141000       4.73344000      -3.33821400       0.60679200       1.56999000      -0.60189783       0.16259653       0.27838887
10
Lattice="11.0 0.0 0.0 0.0 11.0 0.0 0.0 0.0 11.0" Properties=species:S:1:pos:R:3:REF_forces:R:3:MACE_forces:R:3 config_type=Fe5B1Si4 REF_energy=-19.85588119 MACE_energy=-20.059403494215157 pbc="T T T"
Fe       0.38446000       1.64586000       0.19247000      -0.31544900       0.99906300      -1.16531000       0.00330747      -0.00107375       0.00778460
Fe       4.73202000       7.12132000       7.31276000       0.31929800      -0.23556100       1.39875500      -0.00003693       0.00545911       0.00898219
Fe       0.36789000       2.73674000       6.71847000       0.18431700      -0.99436400      -3.07194200       0.51709979       0.20612196      -0.89122991
Fe      10.07665000       2.07009000       8.11408000      -1.05625300       0.13475800      -0.04421700      -0.72049123      -0.40737804       0.58972989
Fe       0.10300000      10.83360000       4.98934000      -0.79988200       1.03958000       0.82376600       0.13537868      -0.16878185      -0.07203595
B        9.83138000       1.34479000       5.59342000       2.73003300      -1.60069300       1.71860100       0.18867987       0.22769936       0.55096732
Si       8.95511000       2.30296000       4.33786000      -0.13907800       0.36771900       0.11506400      -0.12397458       0.14341233      -0.18521596
Si       3.99539000      10.22212000       8.61506000      -0.05248500      -0.48071600       0.18941400       0.00205733      -0.00865999      -0.00363682
Si       2.69021000       5.15166000      10.73011000       1.27722300       0.17680000       0.10453800       0.00005613       0.00000637      -0.00001297
Si       5.75937000       5.49395000      10.03068000      -2.14772600       0.59341400      -0.06866800      -0.00207653       0.00319452      -0.00533240
10
Lattice="9.0 0.0 0.0 0.0 9.0 0.0 0.0 0.0 9.0" Properties=species:S:1:pos:R:3:REF_forces:R:3:MACE_forces:R:3 config_type=Fe5B1Si4 REF_energy=-45.52219027 MACE_energy=-21.151062468206945 pbc="T T T"
Fe       5.95652000       4.23215000       1.06155000      -0.98767900      -0.50029400      -0.25142400       0.25293274       0.12991171      -0.58911751
Fe       5.13270000       1.30654000       4.87525000      -1.02972800       1.07694500      -1.04271400      -0.22653300       0.44103242      -0.26351390
Fe       0.86010000       2.84042000       4.86982000       1.78090900      -0.14036100      -0.68290200       0.00612364       0.00038951      -0.00168599
Fe       4.80846000       2.20734000       0.33653000      -0.70934400       1.79820400       0.47599400      -0.38670069       0.22446644       0.21460591
Fe       4.84818000       3.73073000       2.87016000      -1.11599800      -1.47444400      -2.61602900      -0.42706149      -0.16680747      -0.85990183
B        3.56051000       3.01373000       4.13091000      -3.27582500      -2.90917300      -1.74282900      -0.27412725      -0.53947102       0.23662420
Si       3.41138000       1.28778000       2.26512000       0.95707700       2.37405100       0.97860500       0.24563772       0.35195427      -0.24735583
Si       5.16668000       2.63723000       6.68984000       0.07413900      -1.78642600       3.36318600      -0.01257221      -0.19632245       0.82977843
Si       3.08125000       3.86721000       0.97989000       1.93930500      -1.04831500       0.87154200       0.58359086      -0.31870812       0.21965077
Si       4.99984000       3.77363000       4.95280000       2.36714300       2.60981200       0.64657100       0.23870969       0.07355470       0.46091575
10
Lattice="11.0 0.0 0.0 0.0 11.0 0.0 0.0 0.0 11.0" Properties=species:S:1:pos:R:3:REF_forces:R:3:MACE_forces:R:3 config_type=Fe5B1Si4 REF_energy=-40.7418507 MACE_energy=-20.499157210118142 pbc="T T T"
Fe       5.85212000       3.50546000       5.08734000       2.15677100      -0.79414500      -0.20894700       0.12587543      -0.28189799       0.12287458
Fe       4.00684000       5.71103000       1.22208000       0.17321900       0.19260900       1.30384500       0.01149364       0.02504779       0.10946051
Fe       8.00148000       8.34774000      10.98030000      -0.08363800      -0.04550400       0.02901100      -0.00000000      -0.00000000      -0.00000000
Fe       7.35073000       2.40140000       6.64128000       0.77906300       1.12479900      -0.71056100       0.27341452       0.11582984       0.00029719
Fe      10.15241000       4.26124000       5.16236000      -1.21868700      -1.07976300       1.03424500      -0.61210567       0.08336617       0.59434907
B        7.50939000       3.71850000       4.30627000       0.81775400       0.01191000       1.18846500       0.42152813       0.00154035      -0.11507828
Si       0.88259000       3.63568000       4.13155000       0.18457900       0.08807600       0.63549900       0.58634443      -0.21310041      -0.35125454
Si       4.29968000       6.34926000       4.01086000      -0.04470200      -1.65685100      -0.27530200      -0.05417828      -0.26607457       0.04893163
Si       3.89182000       4.30839000       5.36988000      -1.81091900       1.59107900      -0.75492800      -0.51748692       0.46621898      -0.07338953
Si       9.83466000       2.97427000       7.53103000      -0.95344000       0.56779200      -2.24132700      -0.23488529       0.06906984      -0.33619063
10
Lattice="9.0 0.0 0.0 0.0 9.0 0.0 0.0 0.0 9.0" Properties=species:S:1:pos:R:3:REF_forces:R:3:MACE_forces:R:3 config_type=Fe5B1Si4 REF_energy=-42.65563223 MACE_energy=-21.018651161943666 pbc="T T T"
Fe       5.47398000       6.28103000       3.23251000       0.28355300       0.05833700       0.13117200       0.24271276       0.40490030       0.19276017
Fe       3.48819000       2.94480000       4.89866000      -0.87509200      -0.04370600       2.15230300      -0.05721859       0.15570652       0.82089200
Fe       8.33854000       1.27421000       2.74786000      -0.46364400       1.92715600       1.33564000      -0.33765063       0.21770873       0.22552737
Fe       6.99962000       2.76087000       4.14267000      -0.44746500       1.63766400       1.88762100      -0.04885477       0.25428386       0.56767173
Fe       1.77962000       3.26723000       3.35280000      -0.52218800      -0.67489800       0.43259300      -0.06603356      -0.15511969       0.08273691
B        4.62666000       4.86714000       2.55939000       0.26614600      -1.03752000       0.98811100      -0.26434020      -0.49178309      -0.16797999
Si       4.18354000       2.39378000       2.99079000       0.43795500       1.50930000      -2.71878500      -0.14804527       0.05583047      -0.64220306
Si       8.55432000       3.88894000       3.61944000       3.24804800       2.01892900      -1.57919700       0.86568040       0.26813489      -0.21296591
Si       5.93563000       1.17498000       3.69373000      -1.91994400      -5.30800600      -1.48876300      -0.14985271      -0.87867665      -0.34295095
Si       0.45419000       2.68863000       5.46192000      -0.00736800      -0.08725600      -1.14069400      -0.03639742       0.16901465      -0.52348826
10
Lattice="11.0 0.0 0.0 0.0 11.0 0.0 0.0 0.0 11.0" Properties=species:S:1:pos:R:3:REF_forces:R:3:MACE_forces:R:3 config_type=Fe5B1Si4 REF_energy=-34.53347477 MACE_energy=-20.4965870695573 pbc="T T T"
Fe      10.38446000       0.44273000       4.17388000      -0.78237800      -1.86098300       1.10984900      -0.15035942      -0.07477401       0.09324032
Fe       5.58579000       5.13476000       2.28318000      -1.35183300       0.99168200      -0.54319900      -0.18564625       0.33825818       0.57958935
Fe      10.26893000       9.29847000       6.65501000       0.41344200       0.04548900      -2.04786900       0.17090817      -0.04684746      -0.24894139
Fe       8.86095000       8.11141000       4.18070000       1.29133000       1.24914000       1.04926000       0.02695196       0.02264374       0.04162413
Fe       7.69214000       0.53975000       5.12514000       1.95509500      -0.60911200      -1.00813900       0.20638339      -0.00904994      -0.07240029
B        2.74748000       4.83778000       0.91630000       1.39196400      -0.12393600      -0.20196400      -0.12215041       0.02039436       0.09510553
Si       6.81162000       1.90994000       1.53462000      -0.52184800       1.18261600      -0.41056100      -0.08511974       0.26939977      -0.11853939
Si       6.12115000       4.10888000       0.52255000       1.58173000      -1.75162600       1.46051100       0.49568141      -0.66733419      -0.38301066
Si       0.91081000       9.09353000       4.86613000      -2.08485700       0.69467200       0.51855400      -0.25388968       0.10803636       0.18645446
Si       4.16380000       4.58033000      10.67633000      -1.89264600       0.18205800       0.07355800      -0.10275943       0.03927320      -0.17312207
10
Lattice="11.0 0.0 0.0 0.0 11.0 0.0 0.0 0.0 11.0" Properties=species:S:1:pos:R:3:REF_forces:R:3:MACE_forces:R:3 config_type=Fe5B1Si4 REF_energy=-31.88716106 MACE_energy=-20.930537028078536 pbc="T T T"
Fe       1.14116000       9.49468000      10.94139000       1.03161900      -0.44995100      -0.39877100       0.00859335      -0.03115382      -0.02285672
Fe       7.21367000       6.98307000       4.70883000      -2.94301400      -1.46688800       0.65014200      -0.46956403      -0.02599574      -0.01364113
Fe       4.99485000       7.56523000       3.28858000       0.74465000      -0.23543700      -0.70888800       0.06062335      -0.21141353      -0.07252830
Fe       5.11075000       7.78078000       8.02245000      -0.73545200      -0.54142400       0.97332500      -0.07947227      -0.11767825       0.00939749
Fe       5.02580000       6.08327000       6.14288000       1.53107200       2.07986600      -0.44355300       0.22819169       0.22766381       0.00090934
B        6.46739000       9.52531000       1.42776000      -0.83213000      -0.78314200       0.21534400       0.01618941       0.01878710      -0.01313440
Si       3.36056000       5.78054000       9.88043000      -0.35408900       0.86759200       0.70337500      -0.10337179       0.55063860       0.28453251
Si       3.68875000       6.60974000       1.41965000       0.14004300       0.02695200      -1.00259500       0.16021976       0.15481787      -0.12889195
Si       3.95884000       8.08391000      10.56775000       0.21456400       0.93303900      -0.26874100      -0.28608450      -0.42925242      -0.21429280
Si       1.56076000       7.66233000       9.57449000       1.20273800      -0.43060700       0.28036300       0.46467503      -0.13641362       0.17050594
10
Lattice="11.0 0.0 0.0 0.0 11.0 0.0 0.0 0.0 11.0" Properties=species:S:1:pos:R:3:REF_forces:R:3:MACE_forces:R:3 config_type=Fe5B1Si4 REF_energy=-2.43842541 MACE_energy=-20.510812172658877 pbc="T T T"
Fe       8.11536000       3.96737000       6.09845000       2.52379000       3.39438000      -0.10855200       0.82924257       0.84934162      -0.27690121
Fe       4.00538000       4.00868000       8.30741000       1.03860200       0.49749300      -0.86210200      -0.00562502       0.00188338       0.00545940
Fe       6.21734000       5.49238000       4.54674000      -1.90078500      -0.53233000       2.45773000      -0.79756972      -0.65772803       0.75019799
Fe       6.37295000       3.21617000       6.01003000      -4.31429000      -0.62928100      -0.35144300      -1.13664155      -0.16071733      -0.37223803
Fe       4.28107000       3.14598000       4.09228000       1.68301600       0.43320300       1.57416800       0.20559040       0.04790256       0.16473447
B        8.65122000       7.09833000       7.78974000      -0.81588400      -0.96711600      -2.45875700       0.00703783       0.02388988       0.10151372
Si       8.15838000       5.95236000       4.46257000       2.65955200       1.43037300       0.95638300       0.87747215       0.19702101       0.50887427
Si       7.04021000       6.67768000       6.73922000       0.09201500      -1.71899800      -1.45860000       0.05366401      -0.29235065      -0.60935590
Si       9.92269000       6.79012000       6.33039000      -1.33422700      -1.06385500      -1.26044000      -0.20354106      -0.10093301      -0.22413106
Si       6.58826000       7.17809000       3.12641000       0.36821200      -0.84387000       1.51161300       0.17037037       0.09169057      -0.04815365
10
Lattice="6.0 0.0 0.0 0.0 6.0 0.0 0.0 0.0 6.0" Properties=species:S:1:pos:R:3:REF_forces:R:3:MACE_forces:R:3 config_type=Fe5B1Si4 REF_energy=-53.79328822 MACE_energy=-21.518616915700292 pbc="T T T"
Fe       0.50996000       2.31585000       5.10298000      -1.26599000      -0.50951400      -1.36914100      -0.18018485      -0.21941920      -0.16706341
Fe       4.41281000       4.39623000       3.51801000       2.05066400       2.95138500      -2.14682400       0.63674260       0.85554062      -1.36649106
Fe       1.31233000       5.37312000       2.96679000      -9.66985400       0.21848200       6.64889800      -0.78754868       0.04232333       0.76967049
Fe       5.30196000       5.42046000       5.41384000       1.20364700       0.82237100      -1.12375000       0.25281092       0.18054449       0.17532924
Fe       2.97556000       4.92730000       5.11455000      -0.79718400       0.13310700       0.96147400      -0.36556281      -0.10641637       0.45856962
B        5.46078000       0.52907000       3.64926000      -0.06089300       0.25590500       0.66478200       0.03988694      -0.00650334      -0.10077701
Si       2.81628000       5.37752000       2.00180000       6.85751800      -0.72904200      -5.53711500       0.73382511      -0.15732543      -0.34609865
Si       3.67557000       2.72706000       4.43876000      -0.82806600      -3.20205400       1.23328500      -0.31045087      -0.70677871       0.19541745
Si       4.50462000       4.23004000       1.13387000       0.98654700      -1.71437000      -0.38631400      -0.16218846      -0.12094843       0.06059343
Si       3.47649000       1.50306000       2.12993000       1.52361000       1.77373100       1.05470500       0.14267011       0.23898304       0.32084989
10
Lattice="12.0 0.0 0.0 0.0 12.0 0.0 0.0 0.0 12.0" Properties=species:S:1:pos:R:3:REF_forces:R:3:MACE_forces:R:3 config_type=Fe5B1Si4 REF_energy=-45.66921287 MACE_energy=-20.74971374003535 pbc="T T T"
Fe       4.03767000       2.41086000       6.51410000       1.86803300       0.00585300       0.51063200       0.86582243       0.06045786       0.06048448
Fe       4.79727000      11.75927000       9.09533000       0.54049700       0.45513700      -1.32376800      -0.36688642      -0.16137076       0.67526506
Fe       5.80034000       0.20229000       7.24671000      -0.98588000       0.20802500       0.94137200       0.26742386       0.28636481      -0.71711218