15
Lattice="5.664536 0.0 0.0 0.0 5.664536 0.0 0.0 0.0 5.664536" Properties=species:S:1:pos:R:3:REF_forces:R:3:MACE_forces:R:3 config_type=Fe13Si1B1 REF_energy=-108.19731369 MACE_energy=-101.47886770277441 pbc="T T T"
B        4.05901000       2.70568000       1.01305000      -1.63855300      -0.82904000       0.73367400      -1.45004144      -0.99528101       0.32776751
Si       2.82856000       0.10655000       3.62968000      -1.37485700       1.04288500       1.12851000      -1.71719133       1.20135999       1.63213897
Fe       2.58297000       1.18377000       1.20948000       0.93367000       0.14656100       0.38941200       1.41926102      -0.21808829      -0.13996745
Fe       0.38153000       0.68989000       3.08804000       0.88723900       3.84366500       0.15858400       0.47215357       2.69602102       0.42586503
Fe       1.54589000       2.38203000       4.72041000      -2.07199500      -0.40415400      -0.21731400      -1.94057514      -1.14405045      -0.15675428
Fe       0.00965000       3.55673000       0.57847000       1.87002200       0.46818400      -0.57360300       1.31940845       0.60118291      -0.30492222
Fe       4.86453000       2.71686000       2.75028000       1.57660800      -1.70083300       1.51404400       0.95873216      -1.10029429       1.34523762
Fe       4.62966000       0.98828000       5.06676000       0.07922500       1.31640700       1.29952100      -0.43102049       1.09982292       0.42629201
Fe       0.62475000       4.47163000       2.76945000       1.95380600      -3.21231900      -1.53544400       1.72186393      -2.10100910      -1.10505503
Fe       4.87774000       4.67993000       4.41653000      -0.64493200      -0.53503200       0.30435400      -0.23605497      -0.67989969       0.10666361
Fe       3.59664000       2.87221000       4.83153000       0.23532500      -0.37357900      -1.60523300       0.61492705       0.20585667      -0.91799835
Fe       0.66156000       0.50203000       0.73880000      -0.79576700      -0.85035100      -0.29863700      -1.18757951      -0.66992150      -0.02514469
Fe       2.16986000       4.37529000       0.15492000      -0.00013300       0.94038800       0.69583500       0.56925966       0.86958979       0.36492242
Fe       3.84648000       4.71531000       2.05312000       0.75417200       0.77170900      -2.19861800       1.29207822       0.60946158      -2.14030590
Fe       2.60819000       2.98871000       2.55518000      -1.76382900      -0.62449100       0.20491400      -1.40522116      -0.37475058       0.16126076
15
Lattice="5.664536 0.0 0.0 0.0 5.664536 0.0 0.0 0.0 5.664536" Properties=species:S:1:pos:R:3:REF_forces:R:3:MACE_forces:R:3 config_type=Fe13Si1B1 REF_energy=-108.15566798 MACE_energy=-100.73939620839671 pbc="T T T"
B        4.14873000       2.95379000       1.06658000       0.16200100      -0.29917000      -0.39394100       0.21368533      -0.22148701      -0.36936068
Si       3.70970000       1.75376000       4.70342000       2.39954500       1.99334400       0.69658000       2.10726808       1.88120719       0.44513616
Fe       0.77141000       5.48369000       0.61772000       0.15863900      -0.70463600       0.73580300       0.21769429      -0.83703424       0.57719477
Fe       2.70222000       5.62328000       2.66112000      -2.84701800       1.11988600      -2.77526600      -2.10774459       1.08037530      -2.16338038
Fe       2.40590000       1.49012000       0.76033000       2.44811900      -1.09619800       2.05304000       1.45039524      -0.71578595       1.96896249
Fe       0.05981000       0.25678000       4.08407000      -0.72088300      -0.40435400      -1.12965000      -0.40614763      -0.13818901      -0.96898717
Fe       2.69016000       5.46683000       4.60121000      -0.81406600      -1.20768000       2.79556400      -0.63224640      -1.19854466       1.78259036
Fe       1.47386000       1.76151000       4.03878000       0.25632200       2.31886200      -0.70750300       0.21068107       1.90047883      -0.60397618
Fe       5.58209000       3.47185000       2.53703000       2.04828400       0.56513400      -0.37619200       1.78942157       0.57012626       0.31076996
Fe       2.39981000       3.74553000       0.37431000      -0.23425500       0.56240000       0.37900500      -0.24466081       0.10970405       0.48954945
Fe       4.35312000       1.55651000       2.64463000       0.99871600      -1.26274600      -2.03362100       0.89481891      -0.98307250      -1.90038600
Fe       4.71996000       4.32124000       4.97431000      -0.09930100      -2.16645100       0.36829600      -0.47832532      -2.10207514      -0.03638306
Fe       4.35696000       5.05523000       1.41829000       0.42683500       0.31250100      -0.90165400       0.41000598       0.58720907      -0.48411434
Fe       0.47139000       2.05266000       0.60057000      -2.75315200       0.98470800      -0.10508100      -2.18868432       1.11042286      -0.06712899
Fe       3.41003000       3.62129000       2.91823000      -1.42978400      -0.71560000       1.39462200      -1.23616140      -1.04333506       1.01951361
15
Lattice="5.664536 0.0 0.0 0.0 5.664536 0.0 0.0 0.0 5.664536" Properties=species:S:1:pos:R:3:REF_forces:R:3:MACE_forces:R:3 config_type=Fe13Si1B1 REF_energy=-107.93807169 MACE_energy=-100.23966202872458 pbc="T T T"
B        3.89991000       3.42526000       0.45422000       0.11547000      -0.03553900       1.12451100       0.20780599      -0.25008918       1.45432220
Si       3.48762000       0.16630000       4.61337000       0.32574800       0.46308000      -0.01786500      -0.33701153       0.96755367       0.21374918
Fe       2.84778000       1.82037000       0.82228000      -0.98232500      -1.42221600      -1.89337000      -1.44285375      -1.17503562      -1.84543316
Fe       1.34857000       0.81784000       2.30075000      -0.53643500       0.46265000      -1.19653800      -0.31313224       0.61969719      -1.44382120
Fe       1.57642000       1.26355000       4.33118000       0.04619000       0.17232100       0.29400800       0.78340574       0.26682587       0.57563690
Fe       0.65713000       2.94926000       0.95396000      -1.72120200      -1.22782100       0.66296100      -1.42101642      -1.18331852       0.55641636
Fe       4.05988000       1.97076000       2.38888000       1.24013900      -1.25976700       1.55714700       1.41567001      -1.32420260       1.42621793
Fe       5.41523000       1.91313000       4.86891000      -2.57043500      -0.52568200      -0.40262900      -2.58060989      -0.15364287      -0.00986542
Fe       1.35795000       4.61467000       3.62292000      -1.17710100      -0.19986100       1.26666800      -1.05766621       0.24631250       0.98204541
Fe       4.95776000       4.27854000       4.85033000       2.20080800       0.77958800      -0.24901600       2.28281131      -0.35758193      -0.39857440
Fe       2.90817000       3.15860000       4.25698000      -0.87756600      -0.39846100       1.25184100      -0.41747593      -0.58271005       0.71816750
Fe       4.97903000       5.64594000       1.36431000      -0.69131800      -0.04726100      -0.44322300      -0.54545610       0.25685760      -0.44275537
Fe       1.21860000       5.04312000       0.28941000      -0.01329800       1.97019200      -1.42146800       0.10730388       1.70573778      -1.37919495
Fe       4.19049000       3.99341000       2.69223000       2.99720200       1.59092800      -0.45710200       1.85488931       1.54334080      -0.46895451
Fe       2.24232000       4.14646000       1.80095000       1.64412400      -0.32215200      -0.07592500       1.46333584      -0.57974465       0.06204352
15
Lattice="5.664536 0.0 0.0 0.0 5.664536 0.0 0.0 0.0 5.664536" Properties=species:S:1:pos:R:3:REF_forces:R:3:MACE_forces:R:3 config_type=Fe13Si1B1 REF_energy=-111.97852358 MACE_energy=-104.88721571918045 pbc="T T T"
B        0.06916000       5.66432000       5.18689000       0.12008200      -0.64043800       0.01360000       0.12557905      -0.65693848       0.31821761
Si       0.02740000       2.72248000       2.59682000      -0.95092500       0.36379500       0.29566700      -1.18907923       0.55865034       0.37367979
Fe       0.14116000       5.54768000       2.85133000       0.08282300      -0.00674100       0.52027800      -0.21584712       0.17838852       0.10961614
Fe       5.56722000       2.97052000       5.53670000      -0.67309900       0.24460700       0.18564600       0.14518321       0.14291518       0.33278474
Fe       2.56501000       0.00405000       5.40440000       0.68434000      -0.27592000       0.60718700       0.58157957      -0.26182340       0.49031416
Fe       2.97079000       2.77487000       5.60913000       0.61990200      -0.30745300       0.59180600      -0.33357053      -0.12723954       0.01206196
Fe       3.14055000       2.58779000       2.39876000      -0.26535600       0.46856000       0.15364600      -0.48113663       0.22706848       0.53230479
Fe       1.27023000       1.29362000       1.29220000       0.59662900      -0.36144800      -0.82067800       0.45597035      -0.36727224      -0.72668128
Fe       1.26884000       1.40412000       4.24821000      -0.00500300       0.79776500      -0.57479700       0.21723109       0.96768550      -0.58761061
Fe       1.43809000       4.26211000       1.36341000       0.07769500      -0.05884300      -0.22592600       0.22846764      -0.10429791      -0.11961399
Fe       1.52070000       4.14480000       4.13170000      -0.18321100      -0.27105400      -0.71528600      -0.09361544      -0.68295578      -0.69972533
Fe       4.46936000       1.09579000       0.98330000      -0.11971100       0.01004100       0.24750400       0.23932840       0.10631995       0.24632036
Fe       4.16783000       1.22547000       4.11325000       0.42899800      -0.08684700      -0.08842400       0.44641133       0.03135576      -0.12499539
Fe       4.22673000       4.46813000       1.30140000       0.09689500      -0.37725000      -0.41990000       0.10308650      -0.27143782      -0.06736898
Fe       4.20815000       4.21553000       4.01300000      -0.51005900       0.50122500       0.22967700      -0.22958818       0.25958145      -0.08930397
15
Lattice="5.664536 0.0 0.0 0.0 5.664536 0.0 0.0 0.0 5.664536" Properties=species:S:1:pos:R:3:REF_forces:R:3:MACE_forces:R:3 config_type=Fe13Si1B1 REF_energy=-111.93959828 MACE_energy=-104.56183434399614 pbc="T T T"
B        0.52210000       0.05440000       5.04153000      -0.83789800      -0.96014800      -0.42271900      -0.46177121      -0.45694731      -0.34519918
Si       5.59498000       2.75302000       2.63746000      -0.41285400      -0.16722200       0.32382300      -0.35075511      -0.60171601       0.00632396
Fe       0.17766000       0.05624000       2.77011000      -0.22089500       0.44737300       1.17937900      -0.33187290       0.27003441       0.71184410
Fe       5.59682000       2.78032000       5.61495000      -0.22239300       0.41310500      -0.03657000      -0.19686814       0.32854041      -0.23727055
Fe       2.71989000       5.37982000       5.43745000       0.17724800       0.17436200       0.47840000      -0.27799475       0.82578390       0.20317534
Fe       2.70157000       2.72483000       5.65192000       0.89303700       0.73165300       0.81071700       0.67120619       0.38116052       0.46624582
Fe       2.97278000       2.68063000       2.60608000       0.64664100       0.39382500      -0.89779500       0.79681366       0.61216435      -0.82046721
Fe       1.04462000       1.15381000       0.98518000       0.85892600      -0.28038300       0.02628300       0.84126704       0.26089463       0.48309857
Fe       1.65813000       1.50296000       3.98982000      -0.38663100      -0.26210300      -0.11433700      -0.56553209      -0.28345690       0.11370509
Fe       1.30631000       4.30849000       1.24352000      -0.41412900       0.11159100       0.24697100      -0.09361945      -0.35760928       0.37112645
Fe       1.58576000       4.06734000       3.99489000      -1.17533100      -0.00634600      -0.85725300      -0.79770270      -0.01390755      -0.64699511
Fe       4.12820000       1.13618000       1.10587000       0.62554700       0.31979100       0.22031500       0.46739639       0.27603965       0.38677731
Fe       4.25787000       1.24949000       4.17529000      -0.08913900      -0.07677300       0.23295600       0.20036310       0.25624766       0.01645466
Fe       4.35495000       4.45297000       1.34581000      -0.13361000      -0.53467800      -0.51744000      -0.23081080      -0.74146594      -0.05535656
Fe       4.41108000       4.43949000       4.32316000       0.69148200      -0.30404700      -0.67272800       0.32988076      -0.75576254      -0.65346270
15
Lattice="5.664536 0.0 0.0 0.0 5.664536 0.0 0.0 0.0 5.664536" Properties=species:S:1:pos:R:3:REF_forces:R:3:MACE_forces:R:3 config_type=Fe13Si1B1 REF_energy=-111.86184603 MACE_energy=-103.25338668343846 pbc="T T T"
B        1.50863000       1.78767000       4.90152000      -0.44122900      -0.13378600       0.30200900      -0.04844350      -0.10615934       0.11639225
Si       4.79549000       2.24346000       2.10133000      -2.02834800      -2.06166200      -2.37230900      -1.61837294      -1.52470247      -2.17333971
Fe       3.20380000       0.75276000       3.12970000      -0.26094900      -0.46491400       0.88121400       0.20761645      -0.09733974       1.15387312
Fe       2.86828000       3.52346000       0.83472000       0.63525800      -0.40693500      -0.10677300       0.55734665      -0.82704057      -0.25098061
Fe       0.30208000       0.41203000       3.59178000       0.43152100       1.99959300       0.71104900       0.31586772       1.75059234       0.18152876
Fe       4.64149000       4.82814000       4.64319000      -2.32204000      -0.32641000       1.26424000      -2.43866103      -0.27414459       1.11786399
Fe       1.38623000       5.04883000       1.95913000       0.13404600      -0.76597900       0.26900800       0.44842524      -0.93459100       0.71144656
Fe       0.01651000       0.69762000       0.56316000       0.43357300       0.50429600      -0.59615700       0.11509383       0.23000712      -0.35805144
Fe       1.71843000       1.81951000       1.96274000      -0.50569400       0.44278300      -1.08150200      -0.96077663       0.72992051      -0.86993985
Fe       2.49328000       3.31853000       3.75571000       0.60663900       0.53722000       0.22889400       0.50543863       0.41250756       0.41624819
Fe       0.35204000       3.39611000       0.17394000       0.28417100      -0.58935200       0.45847800      -0.03914986      -0.68498489       0.69305867
Fe       0.11270000       3.44811000       3.40342000       2.52442400       0.78461300       1.86263000       2.29548786       0.99173407       1.58973208
Fe       4.37430000       4.86511000       1.96411000       0.02203300      -0.44143500      -0.21812100       0.35414042      -0.62163757      -0.22873506
Fe       1.91304000       5.29856000       5.45252000       0.85584700       1.12077600      -1.36953800       0.92137349       0.81153958      -1.82759692
Fe       3.73798000       1.56980000       5.38787000      -0.36925300      -0.19880800      -0.23312100      -0.61538633       0.14429900      -0.27150003
15
Lattice="5.664536 0.0 0.0 0.0 5.664536 0.0 0.0 0.0 5.664536" Properties=species:S:1:pos:R:3:REF_forces:R:3:MACE_forces:R:3 config_type=Fe13Si1B1 REF_energy=-121.96103282 MACE_energy=-103.10824142265837 pbc="T T T"
B        1.89945000       0.62627000       3.85277000      -2.50069800       2.16966800      -1.53918900      -2.52422235       2.20725646      -0.81041072
Si       0.20120000       2.04269000       2.64503000       1.02931600      -0.66199100      -2.72694900       1.22994191       0.18888213      -2.52740449
Fe       2.66066000       5.42797000       2.26357000       0.53979700      -0.03646200      -1.31830900       0.31092978      -0.69288067      -0.97087931
Fe       2.90276000       2.67008000       2.15492000      -1.83815700      -0.38139400      -2.84113500      -2.03241371       0.19072779      -1.73943585
Fe       3.76617000       1.41579000       3.61058000       1.59818700      -1.99316500       0.96094000       1.14021792      -1.09847834       1.09609668
Fe       4.35629000       3.78643000       3.20548000      -0.08184500       1.05317100       0.76552100      -0.38457523       0.70704949       0.74303138
Fe       4.47628000       4.06991000       0.64852000      -0.83953300      -0.22453300       0.86736600      -1.05728634      -0.17766079       0.16548507
Fe       4.19523000       1.12987000       0.84517000       0.20926900       0.78044000      -1.95195400       0.10096624       0.29087198      -0.84389938
Fe       1.20944000       0.98558000       0.54562000       0.36331500       0.64694800       1.15320100       0.49259956       0.58461473       0.35386106
Fe       2.93679000       5.24715000       4.85612000       1.78737200      -1.05335100       3.04321700       1.62017865      -1.53611546       2.11276507
Fe       2.46429000       3.02068000       4.78866000      -0.08418600      -0.93215200       0.71303400      -0.13084806      -0.62744259       0.12771887
Fe       5.64539000       2.77685000       4.69631000       0.33002600      -0.76378800       3.33994500       0.53950412      -0.12652295       2.42629382
Fe       1.14045000       3.92385000       0.99225000      -0.27335200       0.02348800       0.25089500       0.13865940       0.03705448      -0.02669549
Fe       0.17432000       5.38924000       4.59788000      -0.87103600      -0.20642700       0.99417600      -0.33444284      -0.40796584       0.68452919
Fe       5.41134000       5.44443000       2.36685000       0.63152700       1.57954900      -1.71076000       0.89079096       0.46060957      -0.79105590
15
Lattice="5.664536 0.0 0.0 0.0 5.664536 0.0 0.0 0.0 5.664536" Properties=species:S:1:pos:R:3:REF_forces:R:3:MACE_forces:R:3 config_type=Fe13Si1B1 REF_energy=-109.57699008 MACE_energy=-102.33205171938712 pbc="T T T"
B        1.60964000       1.20953000       3.30762000      -0.01479600      -0.54483200       0.36412700       0.18055202      -0.27371583       0.11221864
Si       1.95419000       3.78303000       0.40477000       2.58923000       0.78612200      -1.61162900       2.67751030       0.72676616      -1.33977489
Fe       3.57229000       4.89724000       1.78218000      -0.69680300       0.94883800       2.04020100      -0.76543442       0.74286668       1.47601609
Fe       3.21513000       2.00319000       1.86162000       1.30615200      -1.04311700      -1.34636300       0.76033634      -0.72664412      -1.19194929
Fe       5.12136000       1.05340000       3.05836000       0.48907600      -0.57242700       0.35981000       0.19946292      -0.78342345       0.52756359
Fe       5.33303000       3.41064000       3.19935000      -1.19050900       0.64225800       0.16946300      -0.70206639       0.60329876      -0.05238970
Fe       4.69645000       3.56410000       0.59057000       0.42357200      -2.45414500       1.39631500       0.39719518      -2.26492908       1.23159609
Fe       5.00397000       0.79608000       0.67759000       0.28054300       1.18762000       0.69531900      -0.20375465       0.12535898       0.19799241
Fe       1.02131000       2.39370000       1.67631000      -1.48205000      -1.99677700       1.89497700      -1.22604182      -1.56987273       1.72408666
Fe       4.49205000       4.87623000       4.87240000      -1.22864200       1.13873400      -2.26444700      -0.92570539       1.25426973      -2.29725280
Fe       3.40200000       1.47027000       4.46233000      -0.01871000      -0.18409200       0.67173000      -0.04764723      -0.63461152       0.95130781
Fe       0.59504000       2.14210000       5.17631000       0.66645200      -0.32293300      -3.32851400       0.52672994      -0.49469885      -2.26311026
Fe       1.14446000       5.07983000       4.43636000      -0.37358200       1.06798600      -0.87155500      -0.39068354       1.17918839      -0.82836121
Fe       2.52599000       3.18146000       3.48749000      -0.80261000       1.79870400       1.25168000      -0.49031872       2.07550681       1.19788409
Fe       0.91985000       5.18762000       1.86613000       0.05267700      -0.45193900       0.57888600       0.00986546       0.04064006       0.55417278
15
Lattice="5.664536 0.0 0.0 0.0 5.664536 0.0 0.0 0.0 5.664536" Properties=species:S:1:pos:R:3:REF_forces:R:3:MACE_forces:R:3 config_type=Fe13Si1B1 REF_energy=-111.24757227 MACE_energy=-103.54629658070488 pbc="T T T"
B        2.53656000       2.62317000       3.66583000      -0.11566700      -0.22978700       0.53017200      -0.12736603      -0.00789558       0.33968532
Si       0.67483000       4.27329000       2.69225000       0.92910600       0.68145900       0.71622000       1.23191821       0.45848745       0.90073346
Fe       5.14560000       5.37767000       1.05479000      -0.04263700       0.54874800      -0.34508500      -0.40192829       0.43574486      -0.08662698
Fe       5.17725000       2.96978000       1.28337000      -0.94481700       0.15150400      -1.65556500      -1.31847551       0.13746161      -1.85118649
Fe       4.74580000       3.13666000       4.02461000      -0.25444200      -0.82574700      -0.11998600      -0.05102815      -0.36285269      -0.11057031
Fe       0.33821000       1.51110000       2.57588000       1.22080500      -1.49602800       0.46012600       1.46125194      -1.13418438       0.63965809
Fe       3.09808000       4.41167000       2.55098000       1.58954700      -0.62340300      -0.59486000       1.64286558      -1.10694226      -0.44594968
Fe       4.73088000       0.16933000       4.32731000       1.21238200      -0.98254900      -0.92008400       0.97387326      -1.10474126      -1.02210233
Fe       3.65998000       1.37781000       0.06620000      -0.53114300       0.39644200       0.40797800      -0.53185528       1.11316563      -0.12350983
Fe       3.63898000       1.27668000       2.55773000      -0.56432500       0.60761700      -1.09420600      -0.35854332       0.27769731      -0.54243699
Fe       3.30156000       4.03302000       5.51710000       0.66273100       0.68309200      -0.51252300       0.80932182       0.83837039      -0.92864818
Fe       2.04972000       2.93776000       1.03536000      -1.23701100      -0.98796000       1.66434700      -1.37642150      -1.12639286       1.68047873
Fe       2.16302000       5.60665000       3.99134000      -0.76618900       1.59088200       1.80303200      -0.72108578       1.26175526       1.44909241
Fe       0.95543000       1.84266000       4.95473000       0.27866900      -0.07002100       0.06014100      -0.08622977      -0.19391464       0.25224316
Fe       2.02568000       0.02468000       0.99960000      -1.43701000       0.55575000      -0.39970700      -1.14629717       0.51424118      -0.15086037
15
Lattice="5.664536 0.0 0.0 0.0 5.664536 0.0 0.0 0.0 5.664536" Properties=species:S:1:pos:R:3:REF_forces:R:3:MACE_forces:R:3 config_type=Fe13Si1B1 REF_energy=-108.79062395 MACE_energy=-102.2700602767091 pbc="T T T"
B        5.36400000       3.87568000       4.45905000       0.44648400       0.57032200       0.28604800       0.09562919       0.38127045       0.06604016
Si       3.93387000       4.96403000       3.15711000      -4.30606800      -2.31482200      -2.68264300      -3.65723281      -2.02666915      -2.42093823
Fe       3.00216000       0.92096000       1.44117000      -0.76996800       0.42082500      -0.07835300      -0.65886361       0.04377481       0.13848811
Fe       1.34518000       5.62588000       2.73234000       2.41172500       0.19969700       0.20083700       2.31829045       0.02100648       0.31709506
Fe       0.44730000       2.09377000       4.98703000       1.17940300       0.68255400       0.66504100       1.21763673       0.42697857       0.31686064
Fe       0.30923000       3.79563000       2.39919000      -0.97580900      -1.20085800      -1.00234600      -0.46705967      -0.47896880      -0.80342006
Fe       0.18648000       1.06356000       1.31692000      -0.60348600       1.79501500       0.12312700      -0.00776132       1.73642603       0.05622256
Fe       4.00265000       2.83038000       0.00570000       0.03088500      -0.70677300      -0.45368100       0.16909408      -0.35829501      -0.21548644
Fe       5.37135000       0.30945000       4.05759000       2.43746500       1.21842000       2.05861100       1.63423501       1.35014360       1.96278676
Fe       2.32985000       3.12186000       1.52540000       0.40818200       0.55373600       0.67629300      -0.19928622       0.35581669       0.19386144
Fe       2.77320000       0.82160000       4.63749000       0.11143500       0.28254000       0.06072400       0.23232472       0.52914388       0.08929709
Fe       1.20304000       4.94889000       5.64649000       0.50304000      -0.54997900       0.60819900       0.23456726      -0.07337486       0.86964241
Fe       4.43330000       2.29054000       2.94368000      -1.10290800       0.42652200       0.72577900      -1.02970744       0.14016575       0.56334845
Fe       4.45738000       5.14386000       0.73674000       0.07827300      -0.88309100      -1.20270400      -0.10226582      -1.42267759      -0.77710162
Fe       2.20236000       3.55424000       4.11335000       0.15134500      -0.49410700       0.01507000       0.22039944      -0.62474086      -0.35669632
15
Lattice="5.664536 0.0 0.0 0.0 5.664536 0.0 0.0 0.0 5.664536" Properties=species:S:1:pos:R:3:REF_forces:R:3:MACE_forces:R:3 config_type=Fe13Si1B1 REF_energy=113.06017811 MACE_energy=-102.0831154930584 pbc="T T T"
B        1.39848000       0.19193000       0.61048000      -4.08297800       9.29302800       8.69098400       0.68980137       1.01870856       1.33644369
Si       2.92490000       2.16030000       2.14060000      -2.63496600       9.58037000      -0.49561900      -0.54646632      -1.07782626       1.39988810
Fe       2.86073000       2.70503000       5.26584000       4.32356800      10.20896900      -4.70309300       1.20240686      -1.43238473      -1.24256685
Fe       4.47802000       3.64784000       3.04881000      -8.75739200       8.66530300      12.20431400      -0.05817443       0.63187042       2.86327249
Fe       0.21576000       2.05514000       5.23160000     -18.24380600     -12.70694800      22.88283100       1.93587210       0.45949816      -0.57068964
Fe       0.44166000       2.36030000       2.32519000       9.91181000      13.04098500      -5.34425400       1.41273286      -0.43394991      -0.29764022
Fe       2.03954000       3.82953000       1.07367000      -9.51630500       5.90074000      24.04305300      -2.31564894       2.05953008       0.48651408
Fe       1.39295000       3.86962000       3.86875000       5.08493300      -5.56046400     -11.44166200       0.34627078      -0.39811136      -0.53079228
Fe       4.42805000       1.04262000       3.76613000      10.93879500       4.90624100      -3.25114800      -0.64740264       0.88872205       0.17394692
Fe       4.44753000       1.10914000       0.85325000      15.14670800      12.45203200      -7.47268500       0.15873460      -0.77811789       0.06754363
Fe       3.06886000       5.29358000       5.21060000      31.03933500     -34.73641400       1.35306500       0.27989367      -0.09716141      -0.50765021
Fe       4.80801000       3.61880000       0.94850000       7.81841300       1.86551900       0.92546600      -1.01936105       0.30882480      -0.99590097
Fe       0.75179000       0.26400000       3.08937000     -19.58866100       1.56533600      18.55626500       0.53155352      -0.54802119      -0.73600334
Fe       3.22665000       5.43114000       2.39493000      -7.30714900       7.24190400      -9.20324300      -1.25467536      -0.29616330      -0.38846725
Fe       0.02250000       5.10600000       5.27962000     -14.13230600     -31.71660300     -46.74427400      -0.71553701      -0.30541801      -1.05789815
15
Lattice="5.664536 0.0 0.0 0.0 5.664536 0.0 0.0 0.0 5.664536" Properties=species:S:1:pos:R:3:REF_forces:R:3:MACE_forces:R:3 config_type=Fe13Si1B1 REF_energy=-108.9830283 MACE_energy=-102.0423035367173 pbc="T T T"
B        0.13992000       2.30465000       0.77632000      -2.78401400      -0.82058500       0.46110900      -1.75317525      -1.20088503       0.76073883
Si       2.50353000       2.08237000       3.22653000       0.57446500       0.76610200      -0.17485000       0.11258260       1.07251229      -0.32275630
Fe       1.09387000       3.72736000       2.17845000      -2.33299800      -0.65384800       2.12861500      -1.64230633      -0.64932355       1.37705122
Fe       3.95659000       1.68198000       5.11388000       0.36857700       0.27726400       0.90410800       0.44288433       0.00164913       1.12894759
Fe       3.24055000       0.05102000       1.45794000       1.85872300       1.81044900       1.22583000       1.50892336       1.50048773       1.13051348
Fe       1.11690000       0.40651000       2.78471000       0.23956900      -0.40930100      -0.23173800      -0.24897641      -0.58077900       0.04027523
Fe       4.54933000       5.58716000       3.59286000      -0.31901000      -1.37235600       0.15251700       0.20474475      -1.28671062       0.10999922
Fe       2.02209000       2.17177000       0.81391000       2.28654300       0.57567400       0.95002900       1.52985173       0.61835969       1.12523599
Fe       2.49600000       4.37528000       3.91048000       1.01885200       0.91593900      -0.12431400       0.41892375       0.03920932       0.22318836
Fe       1.55562000       0.82810000       4.97050000      -1.41574600      -0.55119900      -1.41023600      -0.85070664      -0.16175918      -0.75953869