1
Lattice="18.0 0.0 0.0 0.0 18.0 0.0 0.0 0.0 18.0" Properties=species:S:1:pos:R:3:REF_forces:R:3:MACE_forces:R:3 config_type=IsolatedAtom REF_energy=-3.283081 MACE_energy=-10.752567504708828 pbc="T T T"
Fe       0.00000000       0.00000000       0.00000000       0.00000000       0.00000000       0.00000000      -0.00000000      -0.00000000      -0.00000000
1
Lattice="18.0 0.0 0.0 0.0 18.0 0.0 0.0 0.0 18.0" Properties=species:S:1:pos:R:3:REF_forces:R:3:MACE_forces:R:3 config_type=IsolatedAtom REF_energy=-0.81049333 MACE_energy=-10.477038492507898 pbc="T T T"
Si       0.00000000       0.00000000       0.00000000       0.00000000       0.00000000       0.00000000      -0.00000000      -0.00000000      -0.00000000
1
Lattice="18.0 0.0 0.0 0.0 18.0 0.0 0.0 0.0 18.0" Properties=species:S:1:pos:R:3:REF_forces:R:3:MACE_forces:R:3 config_type=IsolatedAtom REF_energy=-0.27559471 MACE_energy=-9.576600277064035 pbc="T T T"
B        0.00000000       0.00000000       0.00000000       0.00000000       0.00000000       0.00000000      -0.00000000      -0.00000000      -0.00000000
10
Lattice="9.0 0.0 0.0 0.0 9.0 0.0 0.0 0.0 9.0" Properties=species:S:1:pos:R:3:REF_forces:R:3:MACE_forces:R:3 config_type=Fe5B1Si4 REF_energy=-44.58554767 MACE_energy=-105.14201030644303 pbc="T T T"
Fe       3.50176000       8.99673000       3.09396000       0.95435000      -0.45803800       0.21474200       0.04768870      -0.16488604      -0.17696823
Fe       6.43801000       1.81225000       6.74888000       1.10970900      -0.66476800      -1.17007400       0.02652236      -0.03774834       0.00575857
Fe       2.41193000       0.16613000       4.88253000       0.30913200      -0.89996000       0.17011800      -0.11041398      -0.03030210       0.19955417
Fe       8.52164000       3.22369000       0.34244000      -0.58790500      -0.47306700      -0.37861700      -0.00220972      -0.00149710      -0.00275076
Fe       5.66627000       2.92739000       3.87411000       4.77509600       2.80733600       2.40000400       0.07788636       0.30204416       0.07328778
B        5.18442000       1.13758000       3.40139000      -0.73957100       0.38065100       0.44676100       0.03727172      -0.14153153      -0.04275508
Si       7.10242000       1.59600000       3.97694000       2.28029300      -3.67324000       1.18634800       0.17150072      -0.12072202      -0.00992565
Si       7.70822000       8.86280000       6.25904000      -0.73207200       1.84563600      -0.48266000      -0.01508498       0.01390949       0.03480286
Si       3.91832000       3.09724000       3.40175000      -6.85054500      -1.08983400      -1.75602400      -0.20461792       0.06812607      -0.04778370
Si       3.63788000       6.78794000       4.49538000      -0.51848800       2.22528500      -0.63059800      -0.02854326       0.11260742      -0.03321996
10
Lattice="9.0 0.0 0.0 0.0 9.0 0.0 0.0 0.0 9.0" Properties=species:S:1:pos:R:3:REF_forces:R:3:MACE_forces:R:3 config_type=Fe5B1Si4 REF_energy=-48.18464377 MACE_energy=-105.28613849411887 pbc="T T T"
Fe       7.72908000       2.13801000       3.67226000      -0.72140700       1.38590200       0.18439100       0.08183506       0.07915247      -0.05888568
Fe       2.56544000       0.37534000       3.55582000       0.62580800       1.02854400      -0.21951900       0.15075491      -0.08230274      -0.17058662
Fe       5.84797000       2.87648000       5.04299000      -0.51992300      -1.03088200      -1.60504700      -0.08643221      -0.01395389       0.10257133
Fe       2.00259000       1.62931000       5.21757000       0.16709900       0.68697000      -1.46342200      -0.03765137       0.16820757       0.10841013
Fe       3.04146000       3.03902000       3.03634000       2.84541400      -0.11631900       1.57660000       0.09544851      -0.11199029       0.06650479
B        4.26036000       4.67435000       3.72342000       0.68065500      -0.16735200      -1.56590600       0.02839567      -0.01478519       0.05461422
Si       6.34493000       4.18783000       3.43892000      -0.40775000      -0.06673100      -0.63978400       0.09688290      -0.00356644      -0.08082145
Si       0.98363000       2.81182000       2.85911000      -2.44913300      -1.45501500       1.18349900      -0.23941508      -0.01745828       0.01237230
Si       4.97672000       0.35177000       3.88032000      -0.44220000       1.58116100       0.17191700      -0.08196004      -0.02399257      -0.01220988
Si       4.49316000       6.21641000       2.06194000       0.22143900      -1.84627800       2.37727300      -0.00785834       0.02068936      -0.02196914
10
Lattice="11.0 0.0 0.0 0.0 11.0 0.0 0.0 0.0 11.0" Properties=species:S:1:pos:R:3:REF_forces:R:3:MACE_forces:R:3 config_type=Fe5B1Si4 REF_energy=-11.58855075 MACE_energy=-105.26946656872009 pbc="T T T"
Fe       8.76471000       0.00946000       6.88513000      -0.22819700       0.12237200      -0.55543600      -0.00000000      -0.00000000      -0.00000000
Fe       2.63377000       1.33277000       3.45207000      -0.77576300      -0.08136400      -0.00027500       0.08319088       0.09725537      -0.08278394
Fe       9.34605000       7.55219000       3.04608000      -1.57311900      -1.03473800      -0.15487700      -0.00916013      -0.00333839       0.00009838
Fe       6.36389000       7.12183000       3.09324000       1.09683100       0.04242100      -0.12816300       0.01076166       0.00155306      -0.00017018
Fe       1.35866000       0.14865000       4.85122000       1.24564900       1.43265900      -2.24078300      -0.13901074      -0.07176958       0.05226212
B        0.74424000       4.87887000       2.93866000      -1.13359500      -0.78566000      -1.94809000      -0.00027999       0.00611838       0.00935961
Si       0.41110000       1.07145000       2.73658000       1.34178700       0.50456200      -0.25058800       0.06598232      -0.03327858       0.09563606
Si       0.39736000       3.73439000       0.50956000      -1.07905800      -1.52336200       2.18566600       0.01063194      -0.00866747      -0.00578957
Si       9.29283000       2.08457000       0.89045000       2.55214100       0.43757800       0.40081500      -0.02576624       0.00422538      -0.01570001
Si       2.63700000       1.37373000       1.21644000      -1.44667700       0.88553200       2.69173100       0.00365030       0.00790185      -0.05291246
10
Lattice="11.0 0.0 0.0 0.0 11.0 0.0 0.0 0.0 11.0" Properties=species:S:1:pos:R:3:REF_forces:R:3:MACE_forces:R:3 config_type=Fe5B1Si4 REF_energy=-38.14997444 MACE_energy=-105.30432337894763 pbc="T T T"
Fe       0.55560000       8.19331000       7.06229000       0.60700700      -1.87987400       0.40247700       0.00720400       0.01060279      -0.00648094
Fe       0.49601000       2.54487000       7.78872000      -1.62914400       1.44061600       0.72816300      -0.08628522       0.02593951       0.01209710
Fe      10.07332000       3.88379000       9.42053000       1.49055100       0.96476400      -0.05327700       0.09117091       0.01270077       0.14416721
Fe       4.45932000       9.07691000       6.11289000       0.24660800      -0.52821700      -0.02378300       0.11654975      -0.13625126       0.00488169
Fe       9.54221000       0.53076000       0.28158000      -0.51209300       1.49842300      -0.39218500       0.01372509      -0.02918838       0.00547553
B       10.69505000       5.70310000       8.40523000       0.71876200      -1.05034900      -0.26069900      -0.02420263       0.00840097       0.00386700
Si       9.01619000       3.31434000       7.76349000       0.22101700      -0.39376100      -0.82483600      -0.00433290      -0.06211876      -0.15207404
Si       1.50005000       6.10934000       7.36041000      -1.47354600       0.22179200       0.82993100       0.01482041       0.00392959      -0.00969632
Si       8.29851000       3.23195000      10.75936000       1.25238600      -0.70606300      -0.69191000      -0.00993146       0.03178299       0.00179869
Si       3.13187000      10.62875000       6.05729000      -0.92154800       0.43266900       0.28612000      -0.11871794       0.13420176      -0.00403592
10
Lattice="11.0 0.0 0.0 0.0 11.0 0.0 0.0 0.0 11.0" Properties=species:S:1:pos:R:3:REF_forces:R:3:MACE_forces:R:3 config_type=Fe5B1Si4 REF_energy=-39.54850766 MACE_energy=-105.30521163266816 pbc="T T T"
Fe       7.32260000       2.25273000       9.60151000      -0.81068000       1.95759200       1.52424100      -0.00160741       0.04424810       0.03693533
Fe       5.30456000       3.18059000       0.62935000       3.59407800       0.60301100       0.45004200       0.24870325       0.09341841       0.02900491
Fe       5.70290000       5.32015000      10.23784000      -0.55638700      -0.41691100      -0.58631200      -0.08998997      -0.09190670       0.05501324
Fe       7.71673000       4.32859000       0.10409000      -1.51783000      -0.48364700      -0.94636500      -0.01294199      -0.10248469       0.01356914
Fe       5.73415000       7.17747000       8.80515000      -0.19559000      -2.26799700       1.43769300      -0.00060774       0.09333123      -0.07274542
B        3.53335000       2.44513000       3.14396000       1.80602500       1.42469000       1.46529900      -0.03339614      -0.01507274      -0.01258236
Si       3.05847000       4.99331000       9.56994000       1.58460600       0.22347600       0.29443400       0.04877595      -0.03624700       0.05276111
Si       4.66874000       2.05360000       5.35076000      -1.23296500       0.33348000      -2.53096100       0.01426734      -0.00520271       0.02797321
Si       3.35109000       3.37679000       0.23198000      -2.51854700       0.79060000      -0.76406600      -0.20679819       0.06237930      -0.01788845
Si       4.02675000       4.41289000       2.41329000      -0.15270900      -2.16429400      -0.34400600       0.03359490      -0.04246319      -0.11204071
10
Lattice="11.0 0.0 0.0 0.0 11.0 0.0 0.0 0.0 11.0" Properties=species:S:1:pos:R:3:REF_forces:R:3:MACE_forces:R:3 config_type=Fe5B1Si4 REF_energy=-30.22050192 MACE_energy=-105.17096136325401 pbc="T T T"
Fe       7.51027000      10.11418000       2.18625000      -1.69790900       1.72973200      -1.19644900      -0.23354771       0.16292757      -0.03331838
Fe       6.52329000       1.24583000       0.98294000       2.87583100      -1.88416600       0.59355300       0.07087806      -0.03852335       0.05114576
Fe       8.50320000       0.98219000       3.23617000       1.14940800      -1.93965800      -1.01181700       0.07118785      -0.19600866       0.08609520
Fe       8.81725000       8.60479000       1.96311000       1.70133000      -1.33465300       0.85149000       0.17378970      -0.17804710       0.10166495
Fe       9.16079000       2.26416000       1.64872000      -0.92180800       1.06168500      -1.01542500       0.07738603       0.16369605      -0.21820317
B        8.94441000       4.16897000      10.47399000      -1.12511400       0.54375800       0.63670800      -0.00176118      -0.00398696      -0.00772738
Si      10.42398000       4.23416000       1.05026000      -1.52480000      -0.05410100      -1.01659500      -0.01693445      -0.04669982       0.02866432
Si       7.56198000       2.31002000       4.34386000      -1.29363800       1.80115300       0.97958300      -0.11981359       0.14332478       0.14517868
Si       8.52672000       8.61906000      10.86161000      -0.94443500       0.65405000      -0.31886100      -0.00940534      -0.01112572      -0.14570640
Si       6.81456000       4.96874000       9.06450000       1.78113500      -0.57779900       1.49781200      -0.01177938       0.00444319      -0.00779357
10
Lattice="11.0 0.0 0.0 0.0 11.0 0.0 0.0 0.0 11.0" Properties=species:S:1:pos:R:3:REF_forces:R:3:MACE_forces:R:3 config_type=Fe5B1Si4 REF_energy=-36.59236839 MACE_energy=-105.15230128976387 pbc="T T T"
Fe       3.58274000      10.79851000      10.73667000       0.11897900       0.22630100      -0.04976800      -0.00000000      -0.00000000      -0.00000000
Fe       1.22875000       2.49300000       7.21708000       2.26097500      -1.53625800       1.07649700       0.14995955      -0.08928527       0.11725471
Fe       0.83190000       3.93076000       3.48688000       1.35086000      -1.69250200       0.45489600       0.06932663      -0.15696384      -0.24124976
Fe       9.39560000       2.93064000       6.23859000      -2.27414300      -0.91782300      -0.86979000      -0.21846851      -0.10296443       0.02033559
Fe       1.68648000       4.78764000       5.33563000      -2.42207400      -1.78775100      -0.34755700      -0.00930880       0.00992315       0.20259513
B        0.09146000       3.23421000       6.27209000       0.33374200       3.18943500      -3.08739300       0.15010985       0.22016647      -0.14302773
Si      10.14804000       1.29848000       4.70398000      -0.27194000       2.69997500       0.88966000      -0.02391150       0.00589056       0.01514878
Si       7.91960000       4.68330000       6.38399000       1.00571800      -0.89791700      -1.90531900       0.00068570       0.00521464       0.00370124
Si       7.87407000       3.80560000       3.83659000       1.69436900       0.65761100       2.09344900       0.00638855       0.01307208      -0.02550777
Si      10.18862000       4.97429000       4.13294000      -1.79648600       0.05892800       1.74532400      -0.12478148       0.09494666       0.05074982
10
Lattice="11.0 0.0 0.0 0.0 11.0 0.0 0.0 0.0 11.0" Properties=species:S:1:pos:R:3:REF_forces:R:3:MACE_forces:R:3 config_type=Fe5B1Si4 REF_energy=-37.97135349 MACE_energy=-105.21444398621172 pbc="T T T"
Fe       9.03194000       7.52207000       3.76953000      -0.41692800       1.06213800       1.36215600       0.04770888      -0.09990407      -0.11239349
Fe      10.13763000      10.16701000       4.97367000      -1.48414600      -0.40832500      -0.11078200       0.20307266       0.02847124       0.00465033
Fe       4.72985000       7.86062000       7.54580000      -0.46341600      -0.84233600       0.25668000      -0.03047406      -0.06832333      -0.01853461
Fe       8.27206000       8.93115000       5.41966000       2.10203900       0.88604100      -1.49179500      -0.18739656      -0.01667451       0.15090002
Fe       4.77388000       2.87329000       5.35297000      -0.27504900      -0.53922100      -0.84728100       0.02617914      -0.14959738      -0.20476655
B        4.61354000       3.86066000       6.74103000      -0.14362800      -0.14915200      -1.57005500      -0.01179984       0.11950447       0.19874064
Si       1.64433000       3.13639000       3.91354000       3.75707800      -0.87803400      -0.36408100       0.10162846      -0.02803840      -0.04776817
Si       3.74801000       5.66030000       6.94882000       0.45210300       0.36957600       0.68487900       0.01671099       0.09836482       0.02484450
Si       8.69515000       0.60160000       4.24738000      -0.18983800      -0.10747800       0.51028900      -0.06387781       0.08742584      -0.04326655
Si      10.87890000       3.62141000       4.73344000      -3.33821400       0.60679200       1.56999000      -0.10175187       0.02877132       0.04759387
10
Lattice="11.0 0.0 0.0 0.0 11.0 0.0 0.0 0.0 11.0" Properties=species:S:1:pos:R:3:REF_forces:R:3:MACE_forces:R:3 config_type=Fe5B1Si4 REF_energy=-19.85588119 MACE_energy=-105.23557816369791 pbc="T T T"
Fe       0.38446000       1.64586000       0.19247000      -0.31544900       0.99906300      -1.16531000       0.00349905      -0.00113530       0.00823175
Fe       4.73202000       7.12132000       7.31276000       0.31929800      -0.23556100       1.39875500      -0.00332269       0.00445656      -0.01014207
Fe       0.36789000       2.73674000       6.71847000       0.18431700      -0.99436400      -3.07194200       0.11061256       0.04422183      -0.19525196
Fe      10.07665000       2.07009000       8.11408000      -1.05625300       0.13475800      -0.04421700      -0.16600822      -0.10199502       0.07780986
Fe       0.10300000      10.83360000       4.98934000      -0.79988200       1.03958000       0.82376600       0.05999989      -0.07827563      -0.02709124
B        9.83138000       1.34479000       5.59342000       2.73003300      -1.60069300       1.71860100       0.02727245       0.10114128       0.17777820
Si       8.95511000       2.30296000       4.33786000      -0.13907800       0.36771900       0.11506400      -0.03537573       0.03604283      -0.04147661
Si       3.99539000      10.22212000       8.61506000      -0.05248500      -0.48071600       0.18941400      -0.00030676       0.00129130       0.00054237
Si       2.69021000       5.15166000      10.73011000       1.27722300       0.17680000       0.10453800      -0.00082426      -0.00009148       0.00018709
Si       5.75937000       5.49395000      10.03068000      -2.14772600       0.59341400      -0.06866800       0.00445371      -0.00565638       0.00941262
10
Lattice="9.0 0.0 0.0 0.0 9.0 0.0 0.0 0.0 9.0" Properties=species:S:1:pos:R:3:REF_forces:R:3:MACE_forces:R:3 config_type=Fe5B1Si4 REF_energy=-45.52219027 MACE_energy=-105.27056197658132 pbc="T T T"
Fe       5.95652000       4.23215000       1.06155000      -0.98767900      -0.50029400      -0.25142400       0.14581630       0.09275916      -0.16358069
Fe       5.13270000       1.30654000       4.87525000      -1.02972800       1.07694500      -1.04271400      -0.04762563       0.11200802      -0.01954001
Fe       0.86010000       2.84042000       4.86982000       1.78090900      -0.14036100      -0.68290200       0.02494686       0.00160603      -0.00683693
Fe       4.80846000       2.20734000       0.33653000      -0.70934400       1.79820400       0.47599400      -0.11489911       0.00085265       0.03820020
Fe       4.84818000       3.73073000       2.87016000      -1.11599800      -1.47444400      -2.61602900      -0.06016155       0.02006648      -0.16767592
B        3.56051000       3.01373000       4.13091000      -3.27582500      -2.90917300      -1.74282900      -0.10448972      -0.13180587       0.15078293
Si       3.41138000       1.28778000       2.26512000       0.95707700       2.37405100       0.97860500       0.02323705      -0.03276919      -0.09983735
Si       5.16668000       2.63723000       6.68984000       0.07413900      -1.78642600       3.36318600      -0.00787448      -0.02157303       0.12508741
Si       3.08125000       3.86721000       0.97989000       1.93930500      -1.04831500       0.87154200       0.09163900      -0.02650458       0.02740919
Si       4.99984000       3.77363000       4.95280000       2.36714300       2.60981200       0.64657100       0.04941129      -0.01463968       0.11599117
10
Lattice="11.0 0.0 0.0 0.0 11.0 0.0 0.0 0.0 11.0" Properties=species:S:1:pos:R:3:REF_forces:R:3:MACE_forces:R:3 config_type=Fe5B1Si4 REF_energy=-40.7418507 MACE_energy=-105.23421379924334 pbc="T T T"
Fe       5.85212000       3.50546000       5.08734000       2.15677100      -0.79414500      -0.20894700      -0.13251968      -0.04505471       0.04238411
Fe       4.00684000       5.71103000       1.22208000       0.17321900       0.19260900       1.30384500      -0.00066046      -0.00143639      -0.00630563
Fe       8.00148000       8.34774000      10.98030000      -0.08363800      -0.04550400       0.02901100      -0.00000000      -0.00000000      -0.00000000
Fe       7.35073000       2.40140000       6.64128000       0.77906300       1.12479900      -0.71056100       0.09553860       0.01931086      -0.00355558
Fe      10.15241000       4.26124000       5.16236000      -1.21868700      -1.07976300       1.03424500      -0.13782598       0.01142078       0.10709361
B        7.50939000       3.71850000       4.30627000       0.81775400       0.01191000       1.18846500       0.21563035      -0.00392325      -0.03100228
Si       0.88259000       3.63568000       4.13155000       0.18457900       0.08807600       0.63549900       0.11984842      -0.03897613      -0.06393934
Si       4.29968000       6.34926000       4.01086000      -0.04470200      -1.65685100      -0.27530200      -0.01006312      -0.04112347       0.03549343
Si       3.89182000       4.30839000       5.36988000      -1.81091900       1.59107900      -0.75492800      -0.10502086       0.08762246      -0.01804396
Si       9.83466000       2.97427000       7.53103000      -0.95344000       0.56779200      -2.24132700      -0.04492728       0.01215984      -0.06212436
10
Lattice="9.0 0.0 0.0 0.0 9.0 0.0 0.0 0.0 9.0" Properties=species:S:1:pos:R:3:REF_forces:R:3:MACE_forces:R:3 config_type=Fe5B1Si4 REF_energy=-42.65563223 MACE_energy=-105.22144180487518 pbc="T T T"
Fe       5.47398000       6.28103000       3.23251000       0.28355300       0.05833700       0.13117200       0.11864824       0.19773148       0.09419969
Fe       3.48819000       2.94480000       4.89866000      -0.87509200      -0.04370600       2.15230300       0.06627469       0.01986863       0.23185500
Fe       8.33854000       1.27421000       2.74786000      -0.46364400       1.92715600       1.33564000      -0.06455494      -0.02186859      -0.00851858
Fe       6.99962000       2.76087000       4.14267000      -0.44746500       1.63766400       1.88762100      -0.02237584       0.09339299       0.15612993
Fe       1.77962000       3.26723000       3.35280000      -0.52218800      -0.67489800       0.43259300      -0.07549844      -0.01914347      -0.02472693
B        4.62666000       4.86714000       2.55939000       0.26614600      -1.03752000       0.98811100      -0.09696912      -0.15334763      -0.11576889
Si       4.18354000       2.39378000       2.99079000       0.43795500       1.50930000      -2.71878500      -0.04116381      -0.05972816      -0.11356069
Si       8.55432000       3.88894000       3.61944000       3.24804800       2.01892900      -1.57919700       0.19574890       0.05056132      -0.01618369
Si       5.93563000       1.17498000       3.69373000      -1.91994400      -5.30800600      -1.48876300      -0.05160728      -0.16507909      -0.09730536
Si       0.45419000       2.68863000       5.46192000      -0.00736800      -0.08725600      -1.14069400      -0.02850240       0.05761251      -0.10612048
10
Lattice="11.0 0.0 0.0 0.0 11.0 0.0 0.0 0.0 11.0" Properties=species:S:1:pos:R:3:REF_forces:R:3:MACE_forces:R:3 config_type=Fe5B1Si4 REF_energy=-34.53347477 MACE_energy=-105.23179974763782 pbc="T T T"
Fe      10.38446000       0.44273000       4.17388000      -0.78237800      -1.86098300       1.10984900      -0.05792284       0.01545248       0.00509271
Fe       5.58579000       5.13476000       2.28318000      -1.35183300       0.99168200      -0.54319900       0.00391188       0.07342173       0.15473942
Fe      10.26893000       9.29847000       6.65501000       0.41344200       0.04548900      -2.04786900       0.04336685      -0.01187673      -0.03502982
Fe       8.86095000       8.11141000       4.18070000       1.29133000       1.24914000       1.04926000      -0.01776586      -0.00083312      -0.00615814
Fe       7.69214000       0.53975000       5.12514000       1.95509500      -0.60911200      -1.00813900       0.05462803      -0.00602219      -0.01792662
B        2.74748000       4.83778000       0.91630000       1.39196400      -0.12393600      -0.20196400      -0.05089808       0.00278029       0.01483985
Si       6.81162000       1.90994000       1.53462000      -0.52184800       1.18261600      -0.41056100      -0.01435941       0.04516431      -0.01904618
Si       6.12115000       4.10888000       0.52255000       1.58173000      -1.75162600       1.46051100       0.04636551      -0.10959463      -0.09649594
Si       0.91081000       9.09353000       4.86613000      -2.08485700       0.69467200       0.51855400      -0.02231465       0.00329273       0.05398735
Si       4.16380000       4.58033000      10.67633000      -1.89264600       0.18205800       0.07355800       0.01498856      -0.01178487      -0.05400263
10
Lattice="11.0 0.0 0.0 0.0 11.0 0.0 0.0 0.0 11.0" Properties=species:S:1:pos:R:3:REF_forces:R:3:MACE_forces:R:3 config_type=Fe5B1Si4 REF_energy=-31.88716106 MACE_energy=-105.27026888586359 pbc="T T T"
Fe       1.14116000       9.49468000      10.94139000       1.03161900      -0.44995100      -0.39877100      -0.02397192       0.00295428      -0.00413146
Fe       7.21367000       6.98307000       4.70883000      -2.94301400      -1.46688800       0.65014200      -0.12102539      -0.00764231      -0.00168777
Fe       4.99485000       7.56523000       3.28858000       0.74465000      -0.23543700      -0.70888800       0.01058940      -0.05436064      -0.01527232
Fe       5.11075000       7.78078000       8.02245000      -0.73545200      -0.54142400       0.97332500       0.00476158       0.00339971      -0.01184193
Fe       5.02580000       6.08327000       6.14288000       1.53107200       2.07986600      -0.44355300       0.05921744       0.02878012      -0.01146003
B        6.46739000       9.52531000       1.42776000      -0.83213000      -0.78314200       0.21534400       0.01112171       0.01556000      -0.01605417
Si       3.36056000       5.78054000       9.88043000      -0.35408900       0.86759200       0.70337500      -0.01059707       0.04915379       0.02133565
Si       3.68875000       6.60974000       1.41965000       0.14004300       0.02695200      -1.00259500       0.04798744       0.06963175       0.01296634
Si       3.95884000       8.08391000      10.56775000       0.21456400       0.93303900      -0.26874100      -0.00041911      -0.10816110       0.01188601
Si       1.56076000       7.66233000       9.57449000       1.20273800      -0.43060700       0.28036300       0.02233593       0.00068440       0.01425968
10
Lattice="11.0 0.0 0.0 0.0 11.0 0.0 0.0 0.0 11.0" Properties=species:S:1:pos:R:3:REF_forces:R:3:MACE_forces:R:3 config_type=Fe5B1Si4 REF_energy=-2.43842541 MACE_energy=-105.12900457319554 pbc="T T T"
Fe       8.11536000       3.96737000       6.09845000       2.52379000       3.39438000      -0.10855200       0.17438453       0.14165776      -0.07401481
Fe       4.00538000       4.00868000       8.30741000       1.03860200       0.49749300      -0.86210200      -0.00511067       0.00171115       0.00495849
Fe       6.21734000       5.49238000       4.54674000      -1.90078500      -0.53233000       2.45773000      -0.14422717      -0.13394337       0.16717282
Fe       6.37295000       3.21617000       6.01003000      -4.31429000      -0.62928100      -0.35144300      -0.23804505      -0.01722179      -0.09766720
Fe       4.28107000       3.14598000       4.09228000       1.68301600       0.43320300       1.57416800       0.04264635      -0.00033113       0.04009141
B        8.65122000       7.09833000       7.78974000      -0.81588400      -0.96711600      -2.45875700       0.00409835       0.00885332       0.03700798
Si       8.15838000       5.95236000       4.46257000       2.65955200       1.43037300       0.95638300       0.14115451       0.01301496       0.01468326
Si       7.04021000       6.67768000       6.73922000       0.09201500      -1.71899800      -1.45860000      -0.08844941      -0.02149924      -0.07756430
Si       9.92269000       6.79012000       6.33039000      -1.33422700      -1.06385500      -1.26044000       0.06403794       0.00648178      -0.02098757
Si       6.58826000       7.17809000       3.12641000       0.36821200      -0.84387000       1.51161300       0.04951061       0.00127655       0.00631992
10
Lattice="6.0 0.0 0.0 0.0 6.0 0.0 0.0 0.0 6.0" Properties=species:S:1:pos:R:3:REF_forces:R:3:MACE_forces:R:3 config_type=Fe5B1Si4 REF_energy=-53.79328822 MACE_energy=-105.35910623572067 pbc="T T T"
Fe       0.50996000       2.31585000       5.10298000      -1.26599000      -0.50951400      -1.36914100      -0.02042994      -0.08334686      -0.05075115
Fe       4.41281000       4.39623000       3.51801000       2.05066400       2.95138500      -2.14682400       0.14632076       0.14281142      -0.40498958
Fe       1.31233000       5.37312000       2.96679000      -9.66985400       0.21848200       6.64889800      -0.16072736      -0.00882514       0.16455538
Fe       5.30196000       5.42046000       5.41384000       1.20364700       0.82237100      -1.12375000       0.13054441       0.07153499       0.16471075
Fe       2.97556000       4.92730000       5.11455000      -0.79718400       0.13310700       0.96147400      -0.21113032      -0.04219698       0.13654902
B        5.46078000       0.52907000       3.64926000      -0.06089300       0.25590500       0.66478200       0.05507610       0.02942719      -0.01508373
Si       2.81628000       5.37752000       2.00180000       6.85751800      -0.72904200      -5.53711500       0.21574489       0.00094796      -0.08290043
Si       3.67557000       2.72706000       4.43876000      -0.82806600      -3.20205400       1.23328500      -0.08345183      -0.12243672       0.06573981
Si       4.50462000       4.23004000       1.13387000       0.98654700      -1.71437000      -0.38631400      -0.07082942       0.02529327       0.02385211
Si       3.47649000       1.50306000       2.12993000       1.52361000       1.77373100       1.05470500      -0.00111729      -0.01320914      -0.00168217
10
Lattice="12.0 0.0 0.0 0.0 12.0 0.0 0.0 0.0 12.0" Properties=species:S:1:pos:R:3:REF_forces:R:3:MACE_forces:R:3 config_type=Fe5B1Si4 REF_energy=-45.66921287 MACE_energy=-105.17519069974439 pbc="T T T"
Fe       4.03767000       2.41086000       6.51410000       1.86803300       0.00585300       0.51063200       0.21245900       0.00968078       0.01866989
Fe       4.79727000      11.75927000       9.09533000       0.54049700       0.45513700      -1.32376800      -0.10561407      -0.04501517       0.19246926
Fe       5.80034000       0.20229000       7.24671000      -0.98588000       0.20802500       0.94137200       0.08266542       0.07468995      -0.20323628