15
Lattice="5.664536 0.0 0.0 0.0 5.664536 0.0 0.0 0.0 5.664536" Properties=species:S:1:pos:R:3:REF_forces:R:3:MACE_forces:R:3 config_type=Fe13Si1B1 REF_energy=-108.19731369 MACE_energy=-170.25753354470467 pbc="T T T"
B        4.05901000       2.70568000       1.01305000      -1.63855300      -0.82904000       0.73367400      -0.06203878      -0.02396300      -0.02191266
Si       2.82856000       0.10655000       3.62968000      -1.37485700       1.04288500       1.12851000      -0.04934883      -0.00116297       0.03307947
Fe       2.58297000       1.18377000       1.20948000       0.93367000       0.14656100       0.38941200       0.05149740      -0.08782810      -0.05554867
Fe       0.38153000       0.68989000       3.08804000       0.88723900       3.84366500       0.15858400       0.10237527       0.00650449       0.01016148
Fe       1.54589000       2.38203000       4.72041000      -2.07199500      -0.40415400      -0.21731400      -0.10962560      -0.13221003      -0.02186365
Fe       0.00965000       3.55673000       0.57847000       1.87002200       0.46818400      -0.57360300      -0.00870538       0.00555323       0.00710827
Fe       4.86453000       2.71686000       2.75028000       1.57660800      -1.70083300       1.51404400       0.06348007      -0.10005567       0.09355300
Fe       4.62966000       0.98828000       5.06676000       0.07922500       1.31640700       1.29952100      -0.07964887       0.06286257       0.01321315
Fe       0.62475000       4.47163000       2.76945000       1.95380600      -3.21231900      -1.53544400       0.11962615       0.06383944      -0.02051477
Fe       4.87774000       4.67993000       4.41653000      -0.64493200      -0.53503200       0.30435400      -0.06171895       0.05419882      -0.01106527
Fe       3.59664000       2.87221000       4.83153000       0.23532500      -0.37357900      -1.60523300       0.01435996      -0.03875944       0.01736579
Fe       0.66156000       0.50203000       0.73880000      -0.79576700      -0.85035100      -0.29863700      -0.01803765      -0.04865742      -0.03350963
Fe       2.16986000       4.37529000       0.15492000      -0.00013300       0.94038800       0.69583500       0.10857771       0.09111839       0.06777707
Fe       3.84648000       4.71531000       2.05312000       0.75417200       0.77170900      -2.19861800       0.04734078       0.12607475      -0.06185040
Fe       2.60819000       2.98871000       2.55518000      -1.76382900      -0.62449100       0.20491400      -0.11813328       0.02248495      -0.01599319
15
Lattice="5.664536 0.0 0.0 0.0 5.664536 0.0 0.0 0.0 5.664536" Properties=species:S:1:pos:R:3:REF_forces:R:3:MACE_forces:R:3 config_type=Fe13Si1B1 REF_energy=-108.15566798 MACE_energy=-170.26925235288297 pbc="T T T"
B        4.14873000       2.95379000       1.06658000       0.16200100      -0.29917000      -0.39394100       0.01246317      -0.02613541      -0.03686341
Si       3.70970000       1.75376000       4.70342000       2.39954500       1.99334400       0.69658000       0.01141093       0.04959068      -0.03504641
Fe       0.77141000       5.48369000       0.61772000       0.15863900      -0.70463600       0.73580300       0.05824699      -0.07320156       0.09583561
Fe       2.70222000       5.62328000       2.66112000      -2.84701800       1.11988600      -2.77526600      -0.17559378       0.00704148      -0.01794662
Fe       2.40590000       1.49012000       0.76033000       2.44811900      -1.09619800       2.05304000       0.10496506      -0.01709584       0.05367283
Fe       0.05981000       0.25678000       4.08407000      -0.72088300      -0.40435400      -1.12965000       0.02504562      -0.00330309      -0.03812090
Fe       2.69016000       5.46683000       4.60121000      -0.81406600      -1.20768000       2.79556400      -0.03651433      -0.00173641      -0.02909248
Fe       1.47386000       1.76151000       4.03878000       0.25632200       2.31886200      -0.70750300       0.02631640       0.13510762      -0.05725180
Fe       5.58209000       3.47185000       2.53703000       2.04828400       0.56513400      -0.37619200       0.19508471       0.06205389       0.10829511
Fe       2.39981000       3.74553000       0.37431000      -0.23425500       0.56240000       0.37900500       0.01663387      -0.02339020       0.03361303
Fe       4.35312000       1.55651000       2.64463000       0.99871600      -1.26274600      -2.03362100       0.02305259      -0.04018501      -0.08013191
Fe       4.71996000       4.32124000       4.97431000      -0.09930100      -2.16645100       0.36829600       0.02873607      -0.17242013      -0.06158990
Fe       4.35696000       5.05523000       1.41829000       0.42683500       0.31250100      -0.90165400      -0.05476727       0.10253927      -0.04185802
Fe       0.47139000       2.05266000       0.60057000      -2.75315200       0.98470800      -0.10508100      -0.07516095       0.06586730      -0.00037802
Fe       3.41003000       3.62129000       2.91823000      -1.42978400      -0.71560000       1.39462200      -0.15991908      -0.06473258       0.10686289
15
Lattice="5.664536 0.0 0.0 0.0 5.664536 0.0 0.0 0.0 5.664536" Properties=species:S:1:pos:R:3:REF_forces:R:3:MACE_forces:R:3 config_type=Fe13Si1B1 REF_energy=-107.93807169 MACE_energy=-170.16567531343827 pbc="T T T"
B        3.89991000       3.42526000       0.45422000       0.11547000      -0.03553900       1.12451100       0.09691775      -0.00330841       0.09637288
Si       3.48762000       0.16630000       4.61337000       0.32574800       0.46308000      -0.01786500      -0.01215411      -0.01886829       0.03400126
Fe       2.84778000       1.82037000       0.82228000      -0.98232500      -1.42221600      -1.89337000       0.04457367      -0.07263124      -0.09893503
Fe       1.34857000       0.81784000       2.30075000      -0.53643500       0.46265000      -1.19653800       0.00281922       0.07833072      -0.03926873
Fe       1.57642000       1.26355000       4.33118000       0.04619000       0.17232100       0.29400800      -0.00995869       0.01087436       0.06309726
Fe       0.65713000       2.94926000       0.95396000      -1.72120200      -1.22782100       0.66296100      -0.15975141      -0.06640564       0.06842993
Fe       4.05988000       1.97076000       2.38888000       1.24013900      -1.25976700       1.55714700       0.02575832       0.01694046       0.00312359
Fe       5.41523000       1.91313000       4.86891000      -2.57043500      -0.52568200      -0.40262900      -0.15885212      -0.07226979      -0.03541730
Fe       1.35795000       4.61467000       3.62292000      -1.17710100      -0.19986100       1.26666800      -0.01502603      -0.03021727      -0.00259432
Fe       4.95776000       4.27854000       4.85033000       2.20080800       0.77958800      -0.24901600       0.03277082       0.05743530       0.02893211
Fe       2.90817000       3.15860000       4.25698000      -0.87756600      -0.39846100       1.25184100      -0.00286769      -0.00761891       0.03929748
Fe       4.97903000       5.64594000       1.36431000      -0.69131800      -0.04726100      -0.44322300      -0.10835973       0.01070231      -0.08521107
Fe       1.21860000       5.04312000       0.28941000      -0.01329800       1.97019200      -1.42146800       0.12051557       0.09445810      -0.03349468
Fe       4.19049000       3.99341000       2.69223000       2.99720200       1.59092800      -0.45710200       0.07730468       0.03059672      -0.05418966
Fe       2.24232000       4.14646000       1.80095000       1.64412400      -0.32215200      -0.07592500       0.06630974      -0.02801841       0.01585629
15
Lattice="5.664536 0.0 0.0 0.0 5.664536 0.0 0.0 0.0 5.664536" Properties=species:S:1:pos:R:3:REF_forces:R:3:MACE_forces:R:3 config_type=Fe13Si1B1 REF_energy=-111.97852358 MACE_energy=-170.5681076360526 pbc="T T T"
B        0.06916000       5.66432000       5.18689000       0.12008200      -0.64043800       0.01360000       0.04636914      -0.11209827       0.05563979
Si       0.02740000       2.72248000       2.59682000      -0.95092500       0.36379500       0.29566700      -0.07364276       0.02152381      -0.00635361
Fe       0.14116000       5.54768000       2.85133000       0.08282300      -0.00674100       0.52027800      -0.05146564       0.02895461      -0.00174445
Fe       5.56722000       2.97052000       5.53670000      -0.67309900       0.24460700       0.18564600      -0.00470457      -0.00043574       0.04687168
Fe       2.56501000       0.00405000       5.40440000       0.68434000      -0.27592000       0.60718700       0.04265178      -0.02803058       0.03981373
Fe       2.97079000       2.77487000       5.60913000       0.61990200      -0.30745300       0.59180600      -0.05488967      -0.01947555       0.00651737
Fe       3.14055000       2.58779000       2.39876000      -0.26535600       0.46856000       0.15364600      -0.04044303       0.02088698       0.06386895
Fe       1.27023000       1.29362000       1.29220000       0.59662900      -0.36144800      -0.82067800      -0.00178405       0.03709468      -0.04875814
Fe       1.26884000       1.40412000       4.24821000      -0.00500300       0.79776500      -0.57479700       0.02952696       0.12026146      -0.06848770
Fe       1.43809000       4.26211000       1.36341000       0.07769500      -0.05884300      -0.22592600       0.00413349      -0.03406117       0.00133121
Fe       1.52070000       4.14480000       4.13170000      -0.18321100      -0.27105400      -0.71528600       0.00834049      -0.08849066      -0.08633324
Fe       4.46936000       1.09579000       0.98330000      -0.11971100       0.01004100       0.24750400       0.03163466       0.01205527       0.03869340
Fe       4.16783000       1.22547000       4.11325000       0.42899800      -0.08684700      -0.08842400       0.08101071       0.01968515      -0.01282563
Fe       4.22673000       4.46813000       1.30140000       0.09689500      -0.37725000      -0.41990000       0.01558870      -0.01629395      -0.00086519
Fe       4.20815000       4.21553000       4.01300000      -0.51005900       0.50122500       0.22967700      -0.03232621       0.03842397      -0.02736817
15
Lattice="5.664536 0.0 0.0 0.0 5.664536 0.0 0.0 0.0 5.664536" Properties=species:S:1:pos:R:3:REF_forces:R:3:MACE_forces:R:3 config_type=Fe13Si1B1 REF_energy=-111.93959828 MACE_energy=-170.50357303497145 pbc="T T T"
B        0.52210000       0.05440000       5.04153000      -0.83789800      -0.96014800      -0.42271900      -0.06100738      -0.01755384      -0.00086781
Si       5.59498000       2.75302000       2.63746000      -0.41285400      -0.16722200       0.32382300      -0.03313057      -0.03611830      -0.03739847
Fe       0.17766000       0.05624000       2.77011000      -0.22089500       0.44737300       1.17937900      -0.03453452       0.04712377       0.04596442
Fe       5.59682000       2.78032000       5.61495000      -0.22239300       0.41310500      -0.03657000       0.03196618      -0.01106516      -0.02994393
Fe       2.71989000       5.37982000       5.43745000       0.17724800       0.17436200       0.47840000      -0.02463262       0.05385309      -0.00207631
Fe       2.70157000       2.72483000       5.65192000       0.89303700       0.73165300       0.81071700       0.10185236       0.08112902       0.03890667
Fe       2.97278000       2.68063000       2.60608000       0.64664100       0.39382500      -0.89779500       0.07822157       0.07737668      -0.09010948
Fe       1.04462000       1.15381000       0.98518000       0.85892600      -0.28038300       0.02628300       0.05921164       0.03979546       0.03153346
Fe       1.65813000       1.50296000       3.98982000      -0.38663100      -0.26210300      -0.11433700      -0.06890082      -0.00195373       0.02545436
Fe       1.30631000       4.30849000       1.24352000      -0.41412900       0.11159100       0.24697100      -0.02383218      -0.04154669       0.06582740
Fe       1.58576000       4.06734000       3.99489000      -1.17533100      -0.00634600      -0.85725300      -0.10791880      -0.02100384      -0.06133869
Fe       4.12820000       1.13618000       1.10587000       0.62554700       0.31979100       0.22031500       0.08422609       0.01727681       0.04974508
Fe       4.25787000       1.24949000       4.17529000      -0.08913900      -0.07677300       0.23295600       0.00737093       0.03224187       0.01562083
Fe       4.35495000       4.45297000       1.34581000      -0.13361000      -0.53467800      -0.51744000      -0.00974171      -0.12260251       0.00662866
Fe       4.41108000       4.43949000       4.32316000       0.69148200      -0.30404700      -0.67272800       0.00084985      -0.09695264      -0.05794618
15
Lattice="5.664536 0.0 0.0 0.0 5.664536 0.0 0.0 0.0 5.664536" Properties=species:S:1:pos:R:3:REF_forces:R:3:MACE_forces:R:3 config_type=Fe13Si1B1 REF_energy=-111.86184603 MACE_energy=-170.4260772829889 pbc="T T T"
B        1.50863000       1.78767000       4.90152000      -0.44122900      -0.13378600       0.30200900       0.02673140       0.00869285       0.00671131
Si       4.79549000       2.24346000       2.10133000      -2.02834800      -2.06166200      -2.37230900       0.02123176      -0.01721811      -0.09023167
Fe       3.20380000       0.75276000       3.12970000      -0.26094900      -0.46491400       0.88121400       0.00156631       0.04514019       0.09984509
Fe       2.86828000       3.52346000       0.83472000       0.63525800      -0.40693500      -0.10677300       0.03419452      -0.07311828      -0.06461618
Fe       0.30208000       0.41203000       3.59178000       0.43152100       1.99959300       0.71104900      -0.02701659       0.09449434       0.01436573
Fe       4.64149000       4.82814000       4.64319000      -2.32204000      -0.32641000       1.26424000      -0.21989347       0.02993123       0.01121801
Fe       1.38623000       5.04883000       1.95913000       0.13404600      -0.76597900       0.26900800       0.01879314      -0.09777232       0.07684888
Fe       0.01651000       0.69762000       0.56316000       0.43357300       0.50429600      -0.59615700      -0.01437347       0.10560093      -0.01394540
Fe       1.71843000       1.81951000       1.96274000      -0.50569400       0.44278300      -1.08150200      -0.14266205       0.04367281      -0.05669834
Fe       2.49328000       3.31853000       3.75571000       0.60663900       0.53722000       0.22889400       0.07906587       0.05274384       0.06206427
Fe       0.35204000       3.39611000       0.17394000       0.28417100      -0.58935200       0.45847800       0.01411895      -0.08980002       0.14847591
Fe       0.11270000       3.44811000       3.40342000       2.52442400       0.78461300       1.86263000       0.06676573      -0.07828545      -0.00579441
Fe       4.37430000       4.86511000       1.96411000       0.02203300      -0.44143500      -0.21812100       0.07229543      -0.08322139       0.00726022
Fe       1.91304000       5.29856000       5.45252000       0.85584700       1.12077600      -1.36953800       0.11386161       0.06004375      -0.18254718
Fe       3.73798000       1.56980000       5.38787000      -0.36925300      -0.19880800      -0.23312100      -0.04467914      -0.00090436      -0.01295624
15
Lattice="5.664536 0.0 0.0 0.0 5.664536 0.0 0.0 0.0 5.664536" Properties=species:S:1:pos:R:3:REF_forces:R:3:MACE_forces:R:3 config_type=Fe13Si1B1 REF_energy=-121.96103282 MACE_energy=-170.44138727334087 pbc="T T T"
B        1.89945000       0.62627000       3.85277000      -2.50069800       2.16966800      -1.53918900      -0.07862669       0.10473843       0.02404078
Si       0.20120000       2.04269000       2.64503000       1.02931600      -0.66199100      -2.72694900      -0.02251465       0.00421485      -0.09957955
Fe       2.66066000       5.42797000       2.26357000       0.53979700      -0.03646200      -1.31830900       0.02915360      -0.08103711      -0.05882556
Fe       2.90276000       2.67008000       2.15492000      -1.83815700      -0.38139400      -2.84113500      -0.12742696       0.01355128      -0.01865145
Fe       3.76617000       1.41579000       3.61058000       1.59818700      -1.99316500       0.96094000       0.18316829      -0.03264116       0.00141826
Fe       4.35629000       3.78643000       3.20548000      -0.08184500       1.05317100       0.76552100      -0.01936202       0.03276230       0.01628508
Fe       4.47628000       4.06991000       0.64852000      -0.83953300      -0.22453300       0.86736600      -0.13849205       0.00391797       0.01725972
Fe       4.19523000       1.12987000       0.84517000       0.20926900       0.78044000      -1.95195400       0.06760798       0.01914194      -0.09544985
Fe       1.20944000       0.98558000       0.54562000       0.36331500       0.64694800       1.15320100       0.03121276       0.07706813       0.03834933
Fe       2.93679000       5.24715000       4.85612000       1.78737200      -1.05335100       3.04321700      -0.00011190      -0.01968374       0.06427401
Fe       2.46429000       3.02068000       4.78866000      -0.08418600      -0.93215200       0.71303400       0.00663687      -0.10055223       0.00522426
Fe       5.64539000       2.77685000       4.69631000       0.33002600      -0.76378800       3.33994500       0.04494010      -0.08021519       0.05972836
Fe       1.14045000       3.92385000       0.99225000      -0.27335200       0.02348800       0.25089500       0.02110607       0.02026496      -0.03615784
Fe       0.17432000       5.38924000       4.59788000      -0.87103600      -0.20642700       0.99417600      -0.06955529      -0.06509781       0.07435725
Fe       5.41134000       5.44443000       2.36685000       0.63152700       1.57954900      -1.71076000       0.07226389       0.10356740       0.00772722
15
Lattice="5.664536 0.0 0.0 0.0 5.664536 0.0 0.0 0.0 5.664536" Properties=species:S:1:pos:R:3:REF_forces:R:3:MACE_forces:R:3 config_type=Fe13Si1B1 REF_energy=-109.57699008 MACE_energy=-170.3985158177342 pbc="T T T"
B        1.60964000       1.20953000       3.30762000      -0.01479600      -0.54483200       0.36412700      -0.00762292      -0.01365843       0.00793943
Si       1.95419000       3.78303000       0.40477000       2.58923000       0.78612200      -1.61162900       0.05486285       0.01463169      -0.01480000
Fe       3.57229000       4.89724000       1.78218000      -0.69680300       0.94883800       2.04020100      -0.06786128      -0.00298418       0.05666228
Fe       3.21513000       2.00319000       1.86162000       1.30615200      -1.04311700      -1.34636300       0.03921543      -0.01471629      -0.02640772
Fe       5.12136000       1.05340000       3.05836000       0.48907600      -0.57242700       0.35981000       0.02902251      -0.11226308       0.08072785
Fe       5.33303000       3.41064000       3.19935000      -1.19050900       0.64225800       0.16946300      -0.07957651       0.04114062      -0.03970845
Fe       4.69645000       3.56410000       0.59057000       0.42357200      -2.45414500       1.39631500       0.00508945      -0.01545425       0.03851780
Fe       5.00397000       0.79608000       0.67759000       0.28054300       1.18762000       0.69531900      -0.01666465       0.04886750      -0.04699713
Fe       1.02131000       2.39370000       1.67631000      -1.48205000      -1.99677700       1.89497700      -0.02886719      -0.00696691      -0.00040233
Fe       4.49205000       4.87623000       4.87240000      -1.22864200       1.13873400      -2.26444700      -0.10228202       0.00234959      -0.02801351
Fe       3.40200000       1.47027000       4.46233000      -0.01871000      -0.18409200       0.67173000      -0.01030360      -0.02909659       0.07169958
Fe       0.59504000       2.14210000       5.17631000       0.66645200      -0.32293300      -3.32851400       0.11079887      -0.03395320      -0.18242440
Fe       1.14446000       5.07983000       4.43636000      -0.37358200       1.06798600      -0.87155500       0.02452115       0.06117547      -0.00459909
Fe       2.52599000       3.18146000       3.48749000      -0.80261000       1.79870400       1.25168000      -0.02521907       0.14141560       0.08228482
Fe       0.91985000       5.18762000       1.86613000       0.05267700      -0.45193900       0.57888600       0.07488696      -0.08048753       0.00552088
15
Lattice="5.664536 0.0 0.0 0.0 5.664536 0.0 0.0 0.0 5.664536" Properties=species:S:1:pos:R:3:REF_forces:R:3:MACE_forces:R:3 config_type=Fe13Si1B1 REF_energy=-111.24757227 MACE_energy=-170.48981783946113 pbc="T T T"
B        2.53656000       2.62317000       3.66583000      -0.11566700      -0.22978700       0.53017200      -0.01129660      -0.03753279       0.02086362
Si       0.67483000       4.27329000       2.69225000       0.92910600       0.68145900       0.71622000       0.05984829       0.01443068      -0.02141643
Fe       5.14560000       5.37767000       1.05479000      -0.04263700       0.54874800      -0.34508500      -0.00389895      -0.01530480       0.05060945
Fe       5.17725000       2.96978000       1.28337000      -0.94481700       0.15150400      -1.65556500      -0.04933078       0.01277764      -0.02701161
Fe       4.74580000       3.13666000       4.02461000      -0.25444200      -0.82574700      -0.11998600       0.01585887      -0.00441421      -0.05797446
Fe       0.33821000       1.51110000       2.57588000       1.22080500      -1.49602800       0.46012600       0.17989949      -0.02356416       0.01419986
Fe       3.09808000       4.41167000       2.55098000       1.58954700      -0.62340300      -0.59486000       0.12070096      -0.00907495       0.00862676
Fe       4.73088000       0.16933000       4.32731000       1.21238200      -0.98254900      -0.92008400       0.04751038      -0.10930114      -0.04226395
Fe       3.65998000       1.37781000       0.06620000      -0.53114300       0.39644200       0.40797800      -0.04584601       0.11439803      -0.11631420
Fe       3.63898000       1.27668000       2.55773000      -0.56432500       0.60761700      -1.09420600      -0.04023782       0.03741538      -0.09231178
Fe       3.30156000       4.03302000       5.51710000       0.66273100       0.68309200      -0.51252300       0.03087092      -0.02505933       0.00549614
Fe       2.04972000       2.93776000       1.03536000      -1.23701100      -0.98796000       1.66434700      -0.06699815      -0.02015191       0.15417764
Fe       2.16302000       5.60665000       3.99134000      -0.76618900       1.59088200       1.80303200      -0.05637823       0.06423062       0.03530215
Fe       0.95543000       1.84266000       4.95473000       0.27866900      -0.07002100       0.06014100      -0.01637757      -0.04776768       0.05674252
Fe       2.02568000       0.02468000       0.99960000      -1.43701000       0.55575000      -0.39970700      -0.16432480       0.04891862       0.01127430
15
Lattice="5.664536 0.0 0.0 0.0 5.664536 0.0 0.0 0.0 5.664536" Properties=species:S:1:pos:R:3:REF_forces:R:3:MACE_forces:R:3 config_type=Fe13Si1B1 REF_energy=-108.79062395 MACE_energy=-170.3496939542394 pbc="T T T"
B        5.36400000       3.87568000       4.45905000       0.44648400       0.57032200       0.28604800       0.02994806       0.01103768       0.01765900
Si       3.93387000       4.96403000       3.15711000      -4.30606800      -2.31482200      -2.68264300      -0.12136175      -0.04724616      -0.08310261
Fe       3.00216000       0.92096000       1.44117000      -0.76996800       0.42082500      -0.07835300       0.00385708      -0.03540691      -0.00786591
Fe       1.34518000       5.62588000       2.73234000       2.41172500       0.19969700       0.20083700       0.12486351      -0.06024389       0.03009296
Fe       0.44730000       2.09377000       4.98703000       1.17940300       0.68255400       0.66504100       0.10053351       0.00540784      -0.03671410
Fe       0.30923000       3.79563000       2.39919000      -0.97580900      -1.20085800      -1.00234600      -0.06521191       0.04795569      -0.03885875
Fe       0.18648000       1.06356000       1.31692000      -0.60348600       1.79501500       0.12312700       0.00303196       0.11824082       0.05172969
Fe       4.00265000       2.83038000       0.00570000       0.03088500      -0.70677300      -0.45368100       0.00069631      -0.06816648      -0.00496025
Fe       5.37135000       0.30945000       4.05759000       2.43746500       1.21842000       2.05861100      -0.07072144      -0.01260692       0.00360571
Fe       2.32985000       3.12186000       1.52540000       0.40818200       0.55373600       0.67629300      -0.02425670       0.06745938       0.03580019
Fe       2.77320000       0.82160000       4.63749000       0.11143500       0.28254000       0.06072400       0.08743570       0.04655707      -0.05627824
Fe       1.20304000       4.94889000       5.64649000       0.50304000      -0.54997900       0.60819900       0.01829882      -0.02627446       0.14365465
Fe       4.43330000       2.29054000       2.94368000      -1.10290800       0.42652200       0.72577900      -0.11329208       0.06663043       0.10116062
Fe       4.45738000       5.14386000       0.73674000       0.07827300      -0.88309100      -1.20270400      -0.00926703      -0.09358386      -0.04634340
Fe       2.20236000       3.55424000       4.11335000       0.15134500      -0.49410700       0.01507000       0.03544598      -0.01976024      -0.10957955
15
Lattice="5.664536 0.0 0.0 0.0 5.664536 0.0 0.0 0.0 5.664536" Properties=species:S:1:pos:R:3:REF_forces:R:3:MACE_forces:R:3 config_type=Fe13Si1B1 REF_energy=113.06017811 MACE_energy=-170.31532482154387 pbc="T T T"
B        1.39848000       0.19193000       0.61048000      -4.08297800       9.29302800       8.69098400       0.00146991       0.10630421       0.14651271
Si       2.92490000       2.16030000       2.14060000      -2.63496600       9.58037000      -0.49561900       0.01026785      -0.04334738      -0.02986220
Fe       2.86073000       2.70503000       5.26584000       4.32356800      10.20896900      -4.70309300       0.06294065      -0.07566565       0.00637167
Fe       4.47802000       3.64784000       3.04881000      -8.75739200       8.66530300      12.20431400       0.00485570      -0.02756271       0.17651577
Fe       0.21576000       2.05514000       5.23160000     -18.24380600     -12.70694800      22.88283100       0.18382354      -0.00786001      -0.02533434
Fe       0.44166000       2.36030000       2.32519000       9.91181000      13.04098500      -5.34425400       0.10710756      -0.07418304      -0.04740433
Fe       2.03954000       3.82953000       1.07367000      -9.51630500       5.90074000      24.04305300      -0.10571653      -0.03586420       0.00706645
Fe       1.39295000       3.86962000       3.86875000       5.08493300      -5.56046400     -11.44166200       0.04159536      -0.01928018      -0.05569875
Fe       4.42805000       1.04262000       3.76613000      10.93879500       4.90624100      -3.25114800      -0.09099389       0.13159895      -0.00915224
Fe       4.44753000       1.10914000       0.85325000      15.14670800      12.45203200      -7.47268500       0.01762876       0.04006400       0.03814325
Fe       3.06886000       5.29358000       5.21060000      31.03933500     -34.73641400       1.35306500       0.03784919      -0.04549777      -0.05082709
Fe       4.80801000       3.61880000       0.94850000       7.81841300       1.86551900       0.92546600      -0.15077770       0.06561607      -0.01010721
Fe       0.75179000       0.26400000       3.08937000     -19.58866100       1.56533600      18.55626500       0.06391529      -0.02379660      -0.09207866
Fe       3.22665000       5.43114000       2.39493000      -7.30714900       7.24190400      -9.20324300      -0.13991136       0.02396211      -0.02874349
Fe       0.02250000       5.10600000       5.27962000     -14.13230600     -31.71660300     -46.74427400      -0.04405434      -0.01448781      -0.02540154
15
Lattice="5.664536 0.0 0.0 0.0 5.664536 0.0 0.0 0.0 5.664536" Properties=species:S:1:pos:R:3:REF_forces:R:3:MACE_forces:R:3 config_type=Fe13Si1B1 REF_energy=-108.9830283 MACE_energy=-170.36272625928723 pbc="T T T"
B        0.13992000       2.30465000       0.77632000      -2.78401400      -0.82058500       0.46110900      -0.06368769      -0.07473554       0.03283026
Si       2.50353000       2.08237000       3.22653000       0.57446500       0.76610200      -0.17485000      -0.00985338       0.04387180      -0.01787956
Fe       1.09387000       3.72736000       2.17845000      -2.33299800      -0.65384800       2.12861500      -0.12731311      -0.04564120       0.01823133
Fe       3.95659000       1.68198000       5.11388000       0.36857700       0.27726400       0.90410800       0.03355878       0.00077851       0.09647839
Fe       3.24055000       0.05102000       1.45794000       1.85872300       1.81044900       1.22583000      -0.04418019       0.07680211       0.00682420
Fe       1.11690000       0.40651000       2.78471000       0.23956900      -0.40930100      -0.23173800       0.03369429       0.07542084      -0.07232093
Fe       4.54933000       5.58716000       3.59286000      -0.31901000      -1.37235600       0.15251700       0.04854597      -0.13144106       0.00585175
Fe       2.02209000       2.17177000       0.81391000       2.28654300       0.57567400       0.95002900      -0.01391229      -0.03849187       0.06421125
Fe       2.49600000       4.37528000       3.91048000       1.01885200       0.91593900      -0.12431400       0.01769753      -0.05340381       0.01416211
Fe       1.55562000       0.82810000       4.97050000      -1.41574600      -0.55119900      -1.41023600       0.01661326       0.07305143       0.00037185