15
Lattice="5.664536 0.0 0.0 0.0 5.664536 0.0 0.0 0.0 5.664536" Properties=species:S:1:pos:R:3:REF_forces:R:3:MACE_forces:R:3 config_type=Fe13Si1B1 REF_energy=-108.19731369 MACE_energy=-47.831188378189324 pbc="T T T"
B        4.05901000       2.70568000       1.01305000      -1.63855300      -0.82904000       0.73367400      -0.32404925      -0.15954968      -0.07544545
Si       2.82856000       0.10655000       3.62968000      -1.37485700       1.04288500       1.12851000      -0.45750118       0.24703991       0.47097077
Fe       2.58297000       1.18377000       1.20948000       0.93367000       0.14656100       0.38941200       0.85018868      -0.49534436      -0.24225236
Fe       0.38153000       0.68989000       3.08804000       0.88723900       3.84366500       0.15858400       0.29177978       0.81267179       0.39586330
Fe       1.54589000       2.38203000       4.72041000      -2.07199500      -0.40415400      -0.21731400      -0.96470588      -0.77382254      -0.05145491
Fe       0.00965000       3.55673000       0.57847000       1.87002200       0.46818400      -0.57360300       0.05081097       0.14333578       0.24399321
Fe       4.86453000       2.71686000       2.75028000       1.57660800      -1.70083300       1.51404400       0.28288898      -0.31326242       0.66535700
Fe       4.62966000       0.98828000       5.06676000       0.07922500       1.31640700       1.29952100      -0.45730399       0.60833367       0.03467107
Fe       0.62475000       4.47163000       2.76945000       1.95380600      -3.21231900      -1.53544400       0.86409710      -0.48378572      -0.81865092
Fe       4.87774000       4.67993000       4.41653000      -0.64493200      -0.53503200       0.30435400      -0.42664900      -0.13125504      -0.41855151
Fe       3.59664000       2.87221000       4.83153000       0.23532500      -0.37357900      -1.60523300       0.37702667       0.20098696      -0.33470602
Fe       0.66156000       0.50203000       0.73880000      -0.79576700      -0.85035100      -0.29863700      -0.42166754      -0.66938617      -0.06568953
Fe       2.16986000       4.37529000       0.15492000      -0.00013300       0.94038800       0.69583500       0.37817044       0.57514928       0.43169629
Fe       3.84648000       4.71531000       2.05312000       0.75417200       0.77170900      -2.19861800       0.80786033       0.37962672      -0.68302210
Fe       2.60819000       2.98871000       2.55518000      -1.76382900      -0.62449100       0.20491400      -0.85094613       0.05926182       0.44722116
15
Lattice="5.664536 0.0 0.0 0.0 5.664536 0.0 0.0 0.0 5.664536" Properties=species:S:1:pos:R:3:REF_forces:R:3:MACE_forces:R:3 config_type=Fe13Si1B1 REF_energy=-108.15566798 MACE_energy=-48.10395849252075 pbc="T T T"
B        4.14873000       2.95379000       1.06658000       0.16200100      -0.29917000      -0.39394100       0.15460531      -0.23994060      -0.48508069
Si       3.70970000       1.75376000       4.70342000       2.39954500       1.99334400       0.69658000       0.43922027       0.71999321      -0.03406347
Fe       0.77141000       5.48369000       0.61772000       0.15863900      -0.70463600       0.73580300       0.47150366      -0.53137272       0.07544691
Fe       2.70222000       5.62328000       2.66112000      -2.84701800       1.11988600      -2.77526600      -1.26187010       0.86419856      -0.67621946
Fe       2.40590000       1.49012000       0.76033000       2.44811900      -1.09619800       2.05304000       1.10542234      -0.53111042       0.45930732
Fe       0.05981000       0.25678000       4.08407000      -0.72088300      -0.40435400      -1.12965000      -0.13519827       0.09147922      -0.28665720
Fe       2.69016000       5.46683000       4.60121000      -0.81406600      -1.20768000       2.79556400      -0.40762647      -0.11603771       0.69026156
Fe       1.47386000       1.76151000       4.03878000       0.25632200       2.31886200      -0.70750300       0.67708557       0.82624278       0.02676895
Fe       5.58209000       3.47185000       2.53703000       2.04828400       0.56513400      -0.37619200       1.07549502       0.18005745       0.42718947
Fe       2.39981000       3.74553000       0.37431000      -0.23425500       0.56240000       0.37900500       0.13148930      -0.08640502       0.22143549
Fe       4.35312000       1.55651000       2.64463000       0.99871600      -1.26274600      -2.03362100       0.21802010      -0.51724835      -0.78031851
Fe       4.71996000       4.32124000       4.97431000      -0.09930100      -2.16645100       0.36829600      -0.45618523      -1.32520266      -0.06218918
Fe       4.35696000       5.05523000       1.41829000       0.42683500       0.31250100      -0.90165400      -0.15911776       0.47593885      -0.35329184
Fe       0.47139000       2.05266000       0.60057000      -2.75315200       0.98470800      -0.10508100      -1.10819571       0.78406572      -0.11933203
Fe       3.41003000       3.62129000       2.91823000      -1.42978400      -0.71560000       1.39462200      -0.74464804      -0.59465831       0.89674269
15
Lattice="5.664536 0.0 0.0 0.0 5.664536 0.0 0.0 0.0 5.664536" Properties=species:S:1:pos:R:3:REF_forces:R:3:MACE_forces:R:3 config_type=Fe13Si1B1 REF_energy=-107.93807169 MACE_energy=-47.149169545124266 pbc="T T T"
B        3.89991000       3.42526000       0.45422000       0.11547000      -0.03553900       1.12451100       0.42868287       0.02020615       0.73540552
Si       3.48762000       0.16630000       4.61337000       0.32574800       0.46308000      -0.01786500      -0.26451853       0.11550173       0.15069522
Fe       2.84778000       1.82037000       0.82228000      -0.98232500      -1.42221600      -1.89337000      -0.64993376      -0.36369963      -1.32125621
Fe       1.34857000       0.81784000       2.30075000      -0.53643500       0.46265000      -1.19653800      -0.07048885       0.03525989      -1.02339398
Fe       1.57642000       1.26355000       4.33118000       0.04619000       0.17232100       0.29400800       0.60352519      -0.20386170       0.82672925
Fe       0.65713000       2.94926000       0.95396000      -1.72120200      -1.22782100       0.66296100      -0.81304809      -0.55855277       0.24913516
Fe       4.05988000       1.97076000       2.38888000       1.24013900      -1.25976700       1.55714700       0.48634815      -0.49379576       0.59034315
Fe       5.41523000       1.91313000       4.86891000      -2.57043500      -0.52568200      -0.40262900      -1.71772119      -0.03046365      -0.10542359
Fe       1.35795000       4.61467000       3.62292000      -1.17710100      -0.19986100       1.26666800      -0.45223331       0.36099493       0.72488401
Fe       4.95776000       4.27854000       4.85033000       2.20080800       0.77958800      -0.24901600       0.67310161      -0.14877510       0.25382236
Fe       2.90817000       3.15860000       4.25698000      -0.87756600      -0.39846100       1.25184100       0.22546948      -0.32635450       0.41029265
Fe       4.97903000       5.64594000       1.36431000      -0.69131800      -0.04726100      -0.44322300      -0.46559130       0.25331327      -0.51582728
Fe       1.21860000       5.04312000       0.28941000      -0.01329800       1.97019200      -1.42146800       0.31457727       0.97107618      -0.89206695
Fe       4.19049000       3.99341000       2.69223000       2.99720200       1.59092800      -0.45710200       0.79476750       0.78878288      -0.12993325
Fe       2.24232000       4.14646000       1.80095000       1.64412400      -0.32215200      -0.07592500       0.90706295      -0.41963193       0.04659394
15
Lattice="5.664536 0.0 0.0 0.0 5.664536 0.0 0.0 0.0 5.664536" Properties=species:S:1:pos:R:3:REF_forces:R:3:MACE_forces:R:3 config_type=Fe13Si1B1 REF_energy=-111.97852358 MACE_energy=-49.93463542911905 pbc="T T T"
B        0.06916000       5.66432000       5.18689000       0.12008200      -0.64043800       0.01360000       0.07098123      -0.46896329       0.00866088
Si       0.02740000       2.72248000       2.59682000      -0.95092500       0.36379500       0.29566700      -0.56650014       0.23967389       0.11584758
Fe       0.14116000       5.54768000       2.85133000       0.08282300      -0.00674100       0.52027800      -0.45409097       0.19815483      -0.03666205
Fe       5.56722000       2.97052000       5.53670000      -0.67309900       0.24460700       0.18564600      -0.07084165      -0.18797526       0.28320560
Fe       2.56501000       0.00405000       5.40440000       0.68434000      -0.27592000       0.60718700       0.62979572      -0.14204704       0.57293034
Fe       2.97079000       2.77487000       5.60913000       0.61990200      -0.30745300       0.59180600      -0.13079890      -0.10025688       0.10712314
Fe       3.14055000       2.58779000       2.39876000      -0.26535600       0.46856000       0.15364600      -0.07600239       0.21925418       0.08264490
Fe       1.27023000       1.29362000       1.29220000       0.59662900      -0.36144800      -0.82067800      -0.02999830       0.12598024      -0.54048521
Fe       1.26884000       1.40412000       4.24821000      -0.00500300       0.79776500      -0.57479700      -0.04114457       0.96524387      -0.29917537
Fe       1.43809000       4.26211000       1.36341000       0.07769500      -0.05884300      -0.22592600       0.13467444      -0.33671042      -0.06809924
Fe       1.52070000       4.14480000       4.13170000      -0.18321100      -0.27105400      -0.71528600      -0.17965891      -0.68285154      -0.36216697
Fe       4.46936000       1.09579000       0.98330000      -0.11971100       0.01004100       0.24750400       0.23322241       0.31697677       0.01995069
Fe       4.16783000       1.22547000       4.11325000       0.42899800      -0.08684700      -0.08842400       0.58133160       0.13526800       0.17511823
Fe       4.22673000       4.46813000       1.30140000       0.09689500      -0.37725000      -0.41990000       0.05586829      -0.40483432       0.02666248
Fe       4.20815000       4.21553000       4.01300000      -0.51005900       0.50122500       0.22967700      -0.15683788       0.12308698      -0.08555500
15
Lattice="5.664536 0.0 0.0 0.0 5.664536 0.0 0.0 0.0 5.664536" Properties=species:S:1:pos:R:3:REF_forces:R:3:MACE_forces:R:3 config_type=Fe13Si1B1 REF_energy=-111.93959828 MACE_energy=-49.74613703261765 pbc="T T T"
B        0.52210000       0.05440000       5.04153000      -0.83789800      -0.96014800      -0.42271900      -0.23796506      -0.43319138      -0.37575574
Si       5.59498000       2.75302000       2.63746000      -0.41285400      -0.16722200       0.32382300      -0.11741798      -0.19938850      -0.18843261
Fe       0.17766000       0.05624000       2.77011000      -0.22089500       0.44737300       1.17937900      -0.35368093       0.06479995       0.48982810
Fe       5.59682000       2.78032000       5.61495000      -0.22239300       0.41310500      -0.03657000      -0.03735819       0.27095035      -0.21862183
Fe       2.71989000       5.37982000       5.43745000       0.17724800       0.17436200       0.47840000      -0.18553763       0.64932049       0.22096575
Fe       2.70157000       2.72483000       5.65192000       0.89303700       0.73165300       0.81071700       0.38033893       0.43360282       0.30414477
Fe       2.97278000       2.68063000       2.60608000       0.64664100       0.39382500      -0.89779500       0.58991808       0.49089278      -0.62344687
Fe       1.04462000       1.15381000       0.98518000       0.85892600      -0.28038300       0.02628300       0.48651320       0.11996516       0.17385852
Fe       1.65813000       1.50296000       3.98982000      -0.38663100      -0.26210300      -0.11433700      -0.46134745       0.01080400       0.33235719
Fe       1.30631000       4.30849000       1.24352000      -0.41412900       0.11159100       0.24697100      -0.35079520      -0.27539838       0.25265808
Fe       1.58576000       4.06734000       3.99489000      -1.17533100      -0.00634600      -0.85725300      -0.72973091      -0.43194885      -0.36816559
Fe       4.12820000       1.13618000       1.10587000       0.62554700       0.31979100       0.22031500       0.54542983       0.29694046       0.14078653
Fe       4.25787000       1.24949000       4.17529000      -0.08913900      -0.07677300       0.23295600      -0.01628280       0.13070435       0.26303339
Fe       4.35495000       4.45297000       1.34581000      -0.13361000      -0.53467800      -0.51744000       0.08376743      -0.71388592      -0.10170733
Fe       4.41108000       4.43949000       4.32316000       0.69148200      -0.30404700      -0.67272800       0.40414867      -0.41416733      -0.30150234
15
Lattice="5.664536 0.0 0.0 0.0 5.664536 0.0 0.0 0.0 5.664536" Properties=species:S:1:pos:R:3:REF_forces:R:3:MACE_forces:R:3 config_type=Fe13Si1B1 REF_energy=-111.86184603 MACE_energy=-48.7532435180683 pbc="T T T"
B        1.50863000       1.78767000       4.90152000      -0.44122900      -0.13378600       0.30200900       0.00842968      -0.23714331       0.11014956
Si       4.79549000       2.24346000       2.10133000      -2.02834800      -2.06166200      -2.37230900      -0.27721742      -0.43526304      -0.96026082
Fe       3.20380000       0.75276000       3.12970000      -0.26094900      -0.46491400       0.88121400       0.26946023       0.04089580       0.87049849
Fe       2.86828000       3.52346000       0.83472000       0.63525800      -0.40693500      -0.10677300       0.10257982      -0.45809347      -0.22661999
Fe       0.30208000       0.41203000       3.59178000       0.43152100       1.99959300       0.71104900       0.12579894       0.84176483      -0.07565066
Fe       4.64149000       4.82814000       4.64319000      -2.32204000      -0.32641000       1.26424000      -1.58856903       0.28973924       0.48212211
Fe       1.38623000       5.04883000       1.95913000       0.13404600      -0.76597900       0.26900800       0.13291235      -0.59876362       0.29257682
Fe       0.01651000       0.69762000       0.56316000       0.43357300       0.50429600      -0.59615700       0.13536232       0.38576389      -0.12327490
Fe       1.71843000       1.81951000       1.96274000      -0.50569400       0.44278300      -1.08150200      -1.18595947       0.32519467      -0.29379294
Fe       2.49328000       3.31853000       3.75571000       0.60663900       0.53722000       0.22889400       0.26240718       0.12527399       0.22743581
Fe       0.35204000       3.39611000       0.17394000       0.28417100      -0.58935200       0.45847800       0.32848733      -0.33563196       0.76399598
Fe       0.11270000       3.44811000       3.40342000       2.52442400       0.78461300       1.86263000       0.97951478       0.15241425       0.07941600
Fe       4.37430000       4.86511000       1.96411000       0.02203300      -0.44143500      -0.21812100       0.83712311      -0.43188610       0.20823977
Fe       1.91304000       5.29856000       5.45252000       0.85584700       1.12077600      -1.36953800       0.34922241       0.36120623      -1.16512957
Fe       3.73798000       1.56980000       5.38787000      -0.36925300      -0.19880800      -0.23312100      -0.47955222      -0.02547140      -0.18970566
15
Lattice="5.664536 0.0 0.0 0.0 5.664536 0.0 0.0 0.0 5.664536" Properties=species:S:1:pos:R:3:REF_forces:R:3:MACE_forces:R:3 config_type=Fe13Si1B1 REF_energy=-121.96103282 MACE_energy=-48.82533108751742 pbc="T T T"
B        1.89945000       0.62627000       3.85277000      -2.50069800       2.16966800      -1.53918900      -0.55680253       0.52603006       0.25007028
Si       0.20120000       2.04269000       2.64503000       1.02931600      -0.66199100      -2.72694900      -0.01187887      -0.16545995      -0.87492906
Fe       2.66066000       5.42797000       2.26357000       0.53979700      -0.03646200      -1.31830900       0.42738542      -0.41822299      -0.45166716
Fe       2.90276000       2.67008000       2.15492000      -1.83815700      -0.38139400      -2.84113500      -1.06812992       0.26311981      -0.89760228
Fe       3.76617000       1.41579000       3.61058000       1.59818700      -1.99316500       0.96094000       1.32187950      -0.35041333       0.28366191
Fe       4.35629000       3.78643000       3.20548000      -0.08184500       1.05317100       0.76552100      -0.32209600       0.24373815       0.44516247
Fe       4.47628000       4.06991000       0.64852000      -0.83953300      -0.22453300       0.86736600      -0.61352663       0.12400808       0.18161747
Fe       4.19523000       1.12987000       0.84517000       0.20926900       0.78044000      -1.95195400       0.29266659      -0.12347683      -0.18718440
Fe       1.20944000       0.98558000       0.54562000       0.36331500       0.64694800       1.15320100       0.11924426       0.24617771       0.35251645
Fe       2.93679000       5.24715000       4.85612000       1.78737200      -1.05335100       3.04321700       0.12573227       0.07250752       0.30940696
Fe       2.46429000       3.02068000       4.78866000      -0.08418600      -0.93215200       0.71303400      -0.01193705      -0.45283032      -0.03494269
Fe       5.64539000       2.77685000       4.69631000       0.33002600      -0.76378800       3.33994500       0.38748093      -0.23458964       0.94820188
Fe       1.14045000       3.92385000       0.99225000      -0.27335200       0.02348800       0.25089500       0.08314258       0.13631705      -0.22598996
Fe       0.17432000       5.38924000       4.59788000      -0.87103600      -0.20642700       0.99417600      -0.51874743      -0.63422435       0.48832728
Fe       5.41134000       5.44443000       2.36685000       0.63152700       1.57954900      -1.71076000       0.34558685       0.76731902      -0.58664915
15
Lattice="5.664536 0.0 0.0 0.0 5.664536 0.0 0.0 0.0 5.664536" Properties=species:S:1:pos:R:3:REF_forces:R:3:MACE_forces:R:3 config_type=Fe13Si1B1 REF_energy=-109.57699008 MACE_energy=-48.54452942302646 pbc="T T T"
B        1.60964000       1.20953000       3.30762000      -0.01479600      -0.54483200       0.36412700       0.00694347      -0.12037435      -0.00970844
Si       1.95419000       3.78303000       0.40477000       2.58923000       0.78612200      -1.61162900       0.87944867       0.06511300      -0.22721634
Fe       3.57229000       4.89724000       1.78218000      -0.69680300       0.94883800       2.04020100      -0.53116502       0.32652793       0.54826137
Fe       3.21513000       2.00319000       1.86162000       1.30615200      -1.04311700      -1.34636300       0.74137672      -0.37540461      -0.37523382
Fe       5.12136000       1.05340000       3.05836000       0.48907600      -0.57242700       0.35981000       0.36533962      -0.51541626       0.10500380
Fe       5.33303000       3.41064000       3.19935000      -1.19050900       0.64225800       0.16946300      -0.35610674       0.40736642      -0.07562570
Fe       4.69645000       3.56410000       0.59057000       0.42357200      -2.45414500       1.39631500       0.58900711      -1.17801361       0.66944156
Fe       5.00397000       0.79608000       0.67759000       0.28054300       1.18762000       0.69531900      -0.33674103       0.31091841       0.35417492
Fe       1.02131000       2.39370000       1.67631000      -1.48205000      -1.99677700       1.89497700      -0.72210841      -0.32620137       0.48230235
Fe       4.49205000       4.87623000       4.87240000      -1.22864200       1.13873400      -2.26444700      -0.54657194       0.56202492      -0.89710794
Fe       3.40200000       1.47027000       4.46233000      -0.01871000      -0.18409200       0.67173000       0.21340955      -0.52937708       0.58916244
Fe       0.59504000       2.14210000       5.17631000       0.66645200      -0.32293300      -3.32851400       0.48846066       0.07558130      -1.58539624
Fe       1.14446000       5.07983000       4.43636000      -0.37358200       1.06798600      -0.87155500      -0.22688872       0.22028931      -0.51636664
Fe       2.52599000       3.18146000       3.48749000      -0.80261000       1.79870400       1.25168000      -0.70927107       1.32918978       0.45930464
Fe       0.91985000       5.18762000       1.86613000       0.05267700      -0.45193900       0.57888600       0.14486715      -0.25222380       0.47900406
15
Lattice="5.664536 0.0 0.0 0.0 5.664536 0.0 0.0 0.0 5.664536" Properties=species:S:1:pos:R:3:REF_forces:R:3:MACE_forces:R:3 config_type=Fe13Si1B1 REF_energy=-111.24757227 MACE_energy=-49.13390869960885 pbc="T T T"
B        2.53656000       2.62317000       3.66583000      -0.11566700      -0.22978700       0.53017200       0.05211477       0.19865199       0.27723819
Si       0.67483000       4.27329000       2.69225000       0.92910600       0.68145900       0.71622000       0.63230523       0.09268749      -0.00250983
Fe       5.14560000       5.37767000       1.05479000      -0.04263700       0.54874800      -0.34508500      -0.27509629       0.12450679       0.13848514
Fe       5.17725000       2.96978000       1.28337000      -0.94481700       0.15150400      -1.65556500      -0.67667037       0.25975440      -0.65536031
Fe       4.74580000       3.13666000       4.02461000      -0.25444200      -0.82574700      -0.11998600       0.02036463      -0.36017370      -0.58098953
Fe       0.33821000       1.51110000       2.57588000       1.22080500      -1.49602800       0.46012600       0.76133818      -0.57010098       0.57639633
Fe       3.09808000       4.41167000       2.55098000       1.58954700      -0.62340300      -0.59486000       0.99314021      -0.42407352      -0.35836434
Fe       4.73088000       0.16933000       4.32731000       1.21238200      -0.98254900      -0.92008400       0.34558816      -0.76460769      -0.54153071
Fe       3.65998000       1.37781000       0.06620000      -0.53114300       0.39644200       0.40797800      -0.37517090       0.93796012       0.05549131
Fe       3.63898000       1.27668000       2.55773000      -0.56432500       0.60761700      -1.09420600      -0.00998748      -0.09110746      -0.67967671
Fe       3.30156000       4.03302000       5.51710000       0.66273100       0.68309200      -0.51252300       0.66236294       0.49342733      -0.25449699
Fe       2.04972000       2.93776000       1.03536000      -1.23701100      -0.98796000       1.66434700      -0.83916657      -0.49817977       1.16729578
Fe       2.16302000       5.60665000       3.99134000      -0.76618900       1.59088200       1.80303200      -0.25052184       0.76308728       0.75446810
Fe       0.95543000       1.84266000       4.95473000       0.27866900      -0.07002100       0.06014100      -0.21662796      -0.36092667       0.05108765
Fe       2.02568000       0.02468000       0.99960000      -1.43701000       0.55575000      -0.39970700      -0.82397271       0.19909441       0.05246591
15
Lattice="5.664536 0.0 0.0 0.0 5.664536 0.0 0.0 0.0 5.664536" Properties=species:S:1:pos:R:3:REF_forces:R:3:MACE_forces:R:3 config_type=Fe13Si1B1 REF_energy=-108.79062395 MACE_energy=-48.270115484010404 pbc="T T T"
B        5.36400000       3.87568000       4.45905000       0.44648400       0.57032200       0.28604800      -0.00860598       0.19317733      -0.04608529
Si       3.93387000       4.96403000       3.15711000      -4.30606800      -2.31482200      -2.68264300      -0.97287877      -0.55108244      -0.84388310
Fe       3.00216000       0.92096000       1.44117000      -0.76996800       0.42082500      -0.07835300      -0.05171372       0.18828468       0.00625584
Fe       1.34518000       5.62588000       2.73234000       2.41172500       0.19969700       0.20083700       1.55099466      -0.28942098       0.40138352
Fe       0.44730000       2.09377000       4.98703000       1.17940300       0.68255400       0.66504100       0.74072448       0.34686720      -0.21498478
Fe       0.30923000       3.79563000       2.39919000      -0.97580900      -1.20085800      -1.00234600      -0.44685395       0.17034974      -0.19625583
Fe       0.18648000       1.06356000       1.31692000      -0.60348600       1.79501500       0.12312700      -0.14490181       0.81592461       0.17645703
Fe       4.00265000       2.83038000       0.00570000       0.03088500      -0.70677300      -0.45368100      -0.13627977      -0.42303066      -0.14417844
Fe       5.37135000       0.30945000       4.05759000       2.43746500       1.21842000       2.05861100      -0.40689126       0.01540020       0.53041305
Fe       2.32985000       3.12186000       1.52540000       0.40818200       0.55373600       0.67629300      -0.07073519       0.45034183       0.35396367
Fe       2.77320000       0.82160000       4.63749000       0.11143500       0.28254000       0.06072400       0.36501179       0.17119817      -0.16113255
Fe       1.20304000       4.94889000       5.64649000       0.50304000      -0.54997900       0.60819900      -0.17769526       0.12840147       0.74972463
Fe       4.43330000       2.29054000       2.94368000      -1.10290800       0.42652200       0.72577900      -0.64007391      -0.02058016       0.62011112
Fe       4.45738000       5.14386000       0.73674000       0.07827300      -0.88309100      -1.20270400       0.28497350      -1.08309933      -0.55055649
Fe       2.20236000       3.55424000       4.11335000       0.15134500      -0.49410700       0.01507000       0.11492519      -0.11273167      -0.68123238
15
Lattice="5.664536 0.0 0.0 0.0 5.664536 0.0 0.0 0.0 5.664536" Properties=species:S:1:pos:R:3:REF_forces:R:3:MACE_forces:R:3 config_type=Fe13Si1B1 REF_energy=113.06017811 MACE_energy=-48.341778380878 pbc="T T T"
B        1.39848000       0.19193000       0.61048000      -4.08297800       9.29302800       8.69098400       0.08697346       0.42242148       0.57301586
Si       2.92490000       2.16030000       2.14060000      -2.63496600       9.58037000      -0.49561900       0.10988357      -0.33759399       0.16549711
Fe       2.86073000       2.70503000       5.26584000       4.32356800      10.20896900      -4.70309300       0.79760029      -0.68724888      -0.31528371
Fe       4.47802000       3.64784000       3.04881000      -8.75739200       8.66530300      12.20431400      -0.12772610      -0.09325476       1.40465290
Fe       0.21576000       2.05514000       5.23160000     -18.24380600     -12.70694800      22.88283100       1.23402400       0.14357481      -0.33824399
Fe       0.44166000       2.36030000       2.32519000       9.91181000      13.04098500      -5.34425400       0.61045061      -0.37750487      -0.34620634
Fe       2.03954000       3.82953000       1.07367000      -9.51630500       5.90074000      24.04305300      -0.92458232       0.62916563       0.46222823
Fe       1.39295000       3.86962000       3.86875000       5.08493300      -5.56046400     -11.44166200       0.21552191      -0.20280432      -0.13924674
Fe       4.42805000       1.04262000       3.76613000      10.93879500       4.90624100      -3.25114800      -0.42439507       0.79860644       0.21564078
Fe       4.44753000       1.10914000       0.85325000      15.14670800      12.45203200      -7.47268500      -0.24652519       0.03820596       0.21398419
Fe       3.06886000       5.29358000       5.21060000      31.03933500     -34.73641400       1.35306500       0.44405411      -0.43494757      -0.28723563
Fe       4.80801000       3.61880000       0.94850000       7.81841300       1.86551900       0.92546600      -1.08949162      -0.17774537      -0.43388309
Fe       0.75179000       0.26400000       3.08937000     -19.58866100       1.56533600      18.55626500       0.53943959      -0.26423026      -0.20317695
Fe       3.22665000       5.43114000       2.39493000      -7.30714900       7.24190400      -9.20324300      -0.89506916       0.03039074      -0.37504145
Fe       0.02250000       5.10600000       5.27962000     -14.13230600     -31.71660300     -46.74427400      -0.33015810       0.51296496      -0.59670116
15
Lattice="5.664536 0.0 0.0 0.0 5.664536 0.0 0.0 0.0 5.664536" Properties=species:S:1:pos:R:3:REF_forces:R:3:MACE_forces:R:3 config_type=Fe13Si1B1 REF_energy=-108.9830283 MACE_energy=-48.385170207849065 pbc="T T T"
B        0.13992000       2.30465000       0.77632000      -2.78401400      -0.82058500       0.46110900      -0.61989735      -0.42391628       0.23007788
Si       2.50353000       2.08237000       3.22653000       0.57446500       0.76610200      -0.17485000       0.07075061       0.36217831      -0.15559503
Fe       1.09387000       3.72736000       2.17845000      -2.33299800      -0.65384800       2.12861500      -0.87883940      -0.31528784       0.53731238
Fe       3.95659000       1.68198000       5.11388000       0.36857700       0.27726400       0.90410800       0.01427370       0.00927118       0.76161397
Fe       3.24055000       0.05102000       1.45794000       1.85872300       1.81044900       1.22583000       0.35053317       0.93811710       0.56445507
Fe       1.11690000       0.40651000       2.78471000       0.23956900      -0.40930100      -0.23173800       0.26735791      -0.10618190      -0.19812271
Fe       4.54933000       5.58716000       3.59286000      -0.31901000      -1.37235600       0.15251700       0.11310215      -0.60862467      -0.09086289
Fe       2.02209000       2.17177000       0.81391000       2.28654300       0.57567400       0.95002900       0.50382861       0.18640897       0.72734175
Fe       2.49600000       4.37528000       3.91048000       1.01885200       0.91593900      -0.12431400      -0.15659315       0.07058468       0.10557603
Fe       1.55562000       0.82810000       4.97050000      -1.41574600      -0.55119900      -1.41023600       0.00736638       0.11636542      -0.47641666