1
Lattice="18.0 0.0 0.0 0.0 18.0 0.0 0.0 0.0 18.0" Properties=species:S:1:pos:R:3:REF_forces:R:3:MACE_forces:R:3 config_type=IsolatedAtom REF_energy=-3.283081 MACE_energy=-10.760292076470257 pbc="T T T"
Fe       0.00000000       0.00000000       0.00000000       0.00000000       0.00000000       0.00000000      -0.00000000      -0.00000000      -0.00000000
1
Lattice="18.0 0.0 0.0 0.0 18.0 0.0 0.0 0.0 18.0" Properties=species:S:1:pos:R:3:REF_forces:R:3:MACE_forces:R:3 config_type=IsolatedAtom REF_energy=-0.81049333 MACE_energy=-10.432860602120982 pbc="T T T"
Si       0.00000000       0.00000000       0.00000000       0.00000000       0.00000000       0.00000000      -0.00000000      -0.00000000      -0.00000000
1
Lattice="18.0 0.0 0.0 0.0 18.0 0.0 0.0 0.0 18.0" Properties=species:S:1:pos:R:3:REF_forces:R:3:MACE_forces:R:3 config_type=IsolatedAtom REF_energy=-0.27559471 MACE_energy=-9.521200379673338 pbc="T T T"
B        0.00000000       0.00000000       0.00000000       0.00000000       0.00000000       0.00000000      -0.00000000      -0.00000000      -0.00000000
10
Lattice="9.0 0.0 0.0 0.0 9.0 0.0 0.0 0.0 9.0" Properties=species:S:1:pos:R:3:REF_forces:R:3:MACE_forces:R:3 config_type=Fe5B1Si4 REF_energy=-44.58554767 MACE_energy=-104.9532360449094 pbc="T T T"
Fe       3.50176000       8.99673000       3.09396000       0.95435000      -0.45803800       0.21474200       0.03871863      -0.14726146      -0.15450279
Fe       6.43801000       1.81225000       6.74888000       1.10970900      -0.66476800      -1.17007400       0.02309385      -0.03291099       0.00596778
Fe       2.41193000       0.16613000       4.88253000       0.30913200      -0.89996000       0.17011800      -0.09679599      -0.02674036       0.17411603
Fe       8.52164000       3.22369000       0.34244000      -0.58790500      -0.47306700      -0.37861700      -0.00204015      -0.00138224      -0.00253970
Fe       5.66627000       2.92739000       3.87411000       4.77509600       2.80733600       2.40000400       0.06878372       0.26562076       0.06446535
B        5.18442000       1.13758000       3.40139000      -0.73957100       0.38065100       0.44676100       0.03536991      -0.12761477      -0.03839209
Si       7.10242000       1.59600000       3.97694000       2.28029300      -3.67324000       1.18634800       0.15116550      -0.10278570      -0.01147148
Si       7.70822000       8.86280000       6.25904000      -0.73207200       1.84563600      -0.48266000      -0.01248713       0.01016618       0.03303346
Si       3.91832000       3.09724000       3.40175000      -6.85054500      -1.08983400      -1.75602400      -0.18082805       0.06425960      -0.04156141
Si       3.63788000       6.78794000       4.49538000      -0.51848800       2.22528500      -0.63059800      -0.02498029       0.09864898      -0.02911514
10
Lattice="9.0 0.0 0.0 0.0 9.0 0.0 0.0 0.0 9.0" Properties=species:S:1:pos:R:3:REF_forces:R:3:MACE_forces:R:3 config_type=Fe5B1Si4 REF_energy=-48.18464377 MACE_energy=-105.08024975686371 pbc="T T T"
Fe       7.72908000       2.13801000       3.67226000      -0.72140700       1.38590200       0.18439100       0.07630419       0.06824448      -0.05423744
Fe       2.56544000       0.37534000       3.55582000       0.62580800       1.02854400      -0.21951900       0.13303946      -0.07299352      -0.14992213
Fe       5.84797000       2.87648000       5.04299000      -0.51992300      -1.03088200      -1.60504700      -0.08031576      -0.00765355       0.09122399
Fe       2.00259000       1.62931000       5.21757000       0.16709900       0.68697000      -1.46342200      -0.03273694       0.14820559       0.09517978
Fe       3.04146000       3.03902000       3.03634000       2.84541400      -0.11631900       1.57660000       0.08013566      -0.10167182       0.05803949
B        4.26036000       4.67435000       3.72342000       0.68065500      -0.16735200      -1.56590600       0.02491338      -0.01395543       0.05321668
Si       6.34493000       4.18783000       3.43892000      -0.40775000      -0.06673100      -0.63978400       0.08817915      -0.00493241      -0.07011205
Si       0.98363000       2.81182000       2.85911000      -2.44913300      -1.45501500       1.18349900      -0.20977551      -0.01375087       0.01001725
Si       4.97672000       0.35177000       3.88032000      -0.44220000       1.58116100       0.17191700      -0.07252067      -0.02261485      -0.01092888
Si       4.49316000       6.21641000       2.06194000       0.22143900      -1.84627800       2.37727300      -0.00722297       0.02112239      -0.02247669
10
Lattice="11.0 0.0 0.0 0.0 11.0 0.0 0.0 0.0 11.0" Properties=species:S:1:pos:R:3:REF_forces:R:3:MACE_forces:R:3 config_type=Fe5B1Si4 REF_energy=-11.58855075 MACE_energy=-105.06886956707693 pbc="T T T"
Fe       8.76471000       0.00946000       6.88513000      -0.22819700       0.12237200      -0.55543600      -0.00000000      -0.00000000      -0.00000000
Fe       2.63377000       1.33277000       3.45207000      -0.77576300      -0.08136400      -0.00027500       0.07478466       0.08697026      -0.07499385
Fe       9.34605000       7.55219000       3.04608000      -1.57311900      -1.03473800      -0.15487700      -0.00891155      -0.00309067       0.00009933
Fe       6.36389000       7.12183000       3.09324000       1.09683100       0.04242100      -0.12816300       0.01034482       0.00149290      -0.00016359
Fe       1.35866000       0.14865000       4.85122000       1.24564900       1.43265900      -2.24078300      -0.12364205      -0.06467275       0.04795105
B        0.74424000       4.87887000       2.93866000      -1.13359500      -0.78566000      -1.94809000      -0.00013601       0.00585605       0.00917728
Si       0.41110000       1.07145000       2.73658000       1.34178700       0.50456200      -0.25058800       0.05786632      -0.02988759       0.08611139
Si       0.39736000       3.73439000       0.50956000      -1.07905800      -1.52336200       2.18566600       0.01115408      -0.00792450      -0.00585250
Si       9.29283000       2.08457000       0.89045000       2.55214100       0.43757800       0.40081500      -0.02570221       0.00347214      -0.01504183
Si       2.63700000       1.37373000       1.21644000      -1.44667700       0.88553200       2.69173100       0.00424194       0.00778416      -0.04728728
10
Lattice="11.0 0.0 0.0 0.0 11.0 0.0 0.0 0.0 11.0" Properties=species:S:1:pos:R:3:REF_forces:R:3:MACE_forces:R:3 config_type=Fe5B1Si4 REF_energy=-38.14997444 MACE_energy=-105.09940298538488 pbc="T T T"
Fe       0.55560000       8.19331000       7.06229000       0.60700700      -1.87987400       0.40247700       0.00622573       0.00859596      -0.00533925
Fe       0.49601000       2.54487000       7.78872000      -1.62914400       1.44061600       0.72816300      -0.07368949       0.02047796       0.00849095
Fe      10.07332000       3.88379000       9.42053000       1.49055100       0.96476400      -0.05327700       0.07671619       0.00968679       0.12911864
Fe       4.45932000       9.07691000       6.11289000       0.24660800      -0.52821700      -0.02378300       0.10150434      -0.11866260       0.00425152
Fe       9.54221000       0.53076000       0.28158000      -0.51209300       1.49842300      -0.39218500       0.01264189      -0.02688209       0.00504209
B       10.69505000       5.70310000       8.40523000       0.71876200      -1.05034900      -0.26069900      -0.02336268       0.00988835       0.00270944
Si       9.01619000       3.31434000       7.76349000       0.22101700      -0.39376100      -0.82483600      -0.00232315      -0.05304407      -0.13312233
Si       1.50005000       6.10934000       7.36041000      -1.47354600       0.22179200       0.82993100       0.01525095       0.00398128      -0.00985783
Si       8.29851000       3.23195000      10.75936000       1.25238600      -0.70606300      -0.69191000      -0.00947064       0.02917574       0.00218249
Si       3.13187000      10.62875000       6.05729000      -0.92154800       0.43266900       0.28612000      -0.10349314       0.11678268      -0.00347573
10
Lattice="11.0 0.0 0.0 0.0 11.0 0.0 0.0 0.0 11.0" Properties=species:S:1:pos:R:3:REF_forces:R:3:MACE_forces:R:3 config_type=Fe5B1Si4 REF_energy=-39.54850766 MACE_energy=-105.10080177698488 pbc="T T T"
Fe       7.32260000       2.25273000       9.60151000      -0.81068000       1.95759200       1.52424100      -0.00241518       0.03751061       0.03185161
Fe       5.30456000       3.18059000       0.62935000       3.59407800       0.60301100       0.45004200       0.21811228       0.08006868       0.02501259
Fe       5.70290000       5.32015000      10.23784000      -0.55638700      -0.41691100      -0.58631200      -0.08176324      -0.07994100       0.04803239
Fe       7.71673000       4.32859000       0.10409000      -1.51783000      -0.48364700      -0.94636500      -0.00704674      -0.09042496       0.01499180
Fe       5.73415000       7.17747000       8.80515000      -0.19559000      -2.26799700       1.43769300      -0.00049184       0.08583320      -0.06687761
B        3.53335000       2.44513000       3.14396000       1.80602500       1.42469000       1.46529900      -0.03219299      -0.01512026      -0.01399914
Si       3.05847000       4.99331000       9.56994000       1.58460600       0.22347600       0.29443400       0.04338130      -0.03614911       0.05068163
Si       4.66874000       2.05360000       5.35076000      -1.23296500       0.33348000      -2.53096100       0.01424737      -0.00519852       0.02793631
Si       3.35109000       3.37679000       0.23198000      -2.51854700       0.79060000      -0.76406600      -0.18085296       0.05945710      -0.01484014
Si       4.02675000       4.41289000       2.41329000      -0.15270900      -2.16429400      -0.34400600       0.02902201      -0.03603575      -0.10278944
10
Lattice="11.0 0.0 0.0 0.0 11.0 0.0 0.0 0.0 11.0" Properties=species:S:1:pos:R:3:REF_forces:R:3:MACE_forces:R:3 config_type=Fe5B1Si4 REF_energy=-30.22050192 MACE_energy=-104.98084715707613 pbc="T T T"
Fe       7.51027000      10.11418000       2.18625000      -1.69790900       1.72973200      -1.19644900      -0.20395225       0.13528585      -0.03051004
Fe       6.52329000       1.24583000       0.98294000       2.87583100      -1.88416600       0.59355300       0.06365603      -0.03241610       0.04547668
Fe       8.50320000       0.98219000       3.23617000       1.14940800      -1.93965800      -1.01181700       0.06345469      -0.16729962       0.07767921
Fe       8.81725000       8.60479000       1.96311000       1.70133000      -1.33465300       0.85149000       0.14931438      -0.15256174       0.08878265
Fe       9.16079000       2.26416000       1.64872000      -0.92180800       1.06168500      -1.01542500       0.06710491       0.14372422      -0.19395978
B        8.94441000       4.16897000      10.47399000      -1.12511400       0.54375800       0.63670800      -0.00223680      -0.00496203      -0.00711674
Si      10.42398000       4.23416000       1.05026000      -1.52480000      -0.05410100      -1.01659500      -0.01269370      -0.04071933       0.02729695
Si       7.56198000       2.31002000       4.34386000      -1.29363800       1.80115300       0.97958300      -0.10535621       0.12496830       0.12785323
Si       8.52672000       8.61906000      10.86161000      -0.94443500       0.65405000      -0.31886100      -0.00768745      -0.01039578      -0.12782470
Si       6.81456000       4.96874000       9.06450000       1.78113500      -0.57779900       1.49781200      -0.01160359       0.00437623      -0.00767747
10
Lattice="11.0 0.0 0.0 0.0 11.0 0.0 0.0 0.0 11.0" Properties=species:S:1:pos:R:3:REF_forces:R:3:MACE_forces:R:3 config_type=Fe5B1Si4 REF_energy=-36.59236839 MACE_energy=-104.96357113479884 pbc="T T T"
Fe       3.58274000      10.79851000      10.73667000       0.11897900       0.22630100      -0.04976800      -0.00000000      -0.00000000      -0.00000000
Fe       1.22875000       2.49300000       7.21708000       2.26097500      -1.53625800       1.07649700       0.13316461      -0.07880564       0.10384941
Fe       0.83190000       3.93076000       3.48688000       1.35086000      -1.69250200       0.45489600       0.05904566      -0.13776710      -0.21278362
Fe       9.39560000       2.93064000       6.23859000      -2.27414300      -0.91782300      -0.86979000      -0.19324841      -0.09208793       0.02019558
Fe       1.68648000       4.78764000       5.33563000      -2.42207400      -1.78775100      -0.34755700      -0.00680278       0.00908511       0.18038275
B        0.09146000       3.23421000       6.27209000       0.33374200       3.18943500      -3.08739300       0.13227839       0.19694849      -0.12749436
Si      10.14804000       1.29848000       4.70398000      -0.27194000       2.69997500       0.88966000      -0.02214548       0.00334701       0.01223473
Si       7.91960000       4.68330000       6.38399000       1.00571800      -0.89791700      -1.90531900       0.00121103       0.00499532       0.00430280
Si       7.87407000       3.80560000       3.83659000       1.69436900       0.65761100       2.09344900       0.00587508       0.01154649      -0.02478517
Si      10.18862000       4.97429000       4.13294000      -1.79648600       0.05892800       1.74532400      -0.10937811       0.08273826       0.04409786
10
Lattice="11.0 0.0 0.0 0.0 11.0 0.0 0.0 0.0 11.0" Properties=species:S:1:pos:R:3:REF_forces:R:3:MACE_forces:R:3 config_type=Fe5B1Si4 REF_energy=-37.97135349 MACE_energy=-105.01930339965968 pbc="T T T"
Fe       9.03194000       7.52207000       3.76953000      -0.41692800       1.06213800       1.36215600       0.04345195      -0.09014896      -0.10171984
Fe      10.13763000      10.16701000       4.97367000      -1.48414600      -0.40832500      -0.11078200       0.18094698       0.02754754       0.00286314
Fe       4.72985000       7.86062000       7.54580000      -0.46341600      -0.84233600       0.25668000      -0.02664989      -0.05975207      -0.01620919
Fe       8.27206000       8.93115000       5.41966000       2.10203900       0.88604100      -1.49179500      -0.16951829      -0.01528364       0.13694067
Fe       4.77388000       2.87329000       5.35297000      -0.27504900      -0.53922100      -0.84728100       0.02354375      -0.13326727      -0.18204424
B        4.61354000       3.86066000       6.74103000      -0.14362800      -0.14915200      -1.57005500      -0.00979255       0.10473567       0.17639687
Si       1.64433000       3.13639000       3.91354000       3.75707800      -0.87803400      -0.36408100       0.09458226      -0.02611946      -0.04457752
Si       3.74801000       5.66030000       6.94882000       0.45210300       0.36957600       0.68487900       0.01360323       0.08822485       0.02218123
Si       8.69515000       0.60160000       4.24738000      -0.18983800      -0.10747800       0.51028900      -0.05538318       0.07719012      -0.03819583
Si      10.87890000       3.62141000       4.73344000      -3.33821400       0.60679200       1.56999000      -0.09478427       0.02687321       0.04436470
10
Lattice="11.0 0.0 0.0 0.0 11.0 0.0 0.0 0.0 11.0" Properties=species:S:1:pos:R:3:REF_forces:R:3:MACE_forces:R:3 config_type=Fe5B1Si4 REF_energy=-19.85588119 MACE_energy=-105.04165885173546 pbc="T T T"
Fe       0.38446000       1.64586000       0.19247000      -0.31544900       0.99906300      -1.16531000       0.00316657      -0.00102742       0.00744922
Fe       4.73202000       7.12132000       7.31276000       0.31929800      -0.23556100       1.39875500      -0.00308013       0.00404618      -0.00954444
Fe       0.36789000       2.73674000       6.71847000       0.18431700      -0.99436400      -3.07194200       0.09533612       0.03836544      -0.16722901
Fe      10.07665000       2.07009000       8.11408000      -1.05625300       0.13475800      -0.04421700      -0.14310838      -0.08861757       0.06274241
Fe       0.10300000      10.83360000       4.98934000      -0.79988200       1.03958000       0.82376600       0.05477373      -0.07139967      -0.02456674
B        9.83138000       1.34479000       5.59342000       2.73003300      -1.60069300       1.71860100       0.02190943       0.09018472       0.15889643
Si       8.95511000       2.30296000       4.33786000      -0.13907800       0.36771900       0.11506400      -0.03207747       0.03249450      -0.03729231
Si       3.99539000      10.22212000       8.61506000      -0.05248500      -0.48071600       0.18941400      -0.00031673       0.00133329       0.00055999
Si       2.69021000       5.15166000      10.73011000       1.27722300       0.17680000       0.10453800      -0.00050482      -0.00005587       0.00011431
Si       5.75937000       5.49395000      10.03068000      -2.14772600       0.59341400      -0.06866800       0.00390168      -0.00532360       0.00887013
10
Lattice="9.0 0.0 0.0 0.0 9.0 0.0 0.0 0.0 9.0" Properties=species:S:1:pos:R:3:REF_forces:R:3:MACE_forces:R:3 config_type=Fe5B1Si4 REF_energy=-45.52219027 MACE_energy=-105.06619992669698 pbc="T T T"
Fe       5.95652000       4.23215000       1.06155000      -0.98767900      -0.50029400      -0.25142400       0.13191362       0.08581194      -0.14324817
Fe       5.13270000       1.30654000       4.87525000      -1.02972800       1.07694500      -1.04271400      -0.04095693       0.09829242      -0.01564552
Fe       0.86010000       2.84042000       4.86982000       1.78090900      -0.14036100      -0.68290200       0.02396470       0.00154336      -0.00656742
Fe       4.80846000       2.20734000       0.33653000      -0.70934400       1.79820400       0.47599400      -0.10281645      -0.00274059       0.03312056
Fe       4.84818000       3.73073000       2.87016000      -1.11599800      -1.47444400      -2.61602900      -0.05171967       0.01811723      -0.14671554
B        3.56051000       3.01373000       4.13091000      -3.27582500      -2.90917300      -1.74282900      -0.09466283      -0.11441055       0.13686225
Si       3.41138000       1.28778000       2.26512000       0.95707700       2.37405100       0.97860500       0.01920337      -0.03511784      -0.08989386
Si       5.16668000       2.63723000       6.68984000       0.07413900      -1.78642600       3.36318600      -0.00742010      -0.02006078       0.10995639
Si       3.08125000       3.86721000       0.97989000       1.93930500      -1.04831500       0.87154200       0.07879483      -0.02021048       0.02286608
Si       4.99984000       3.77363000       4.95280000       2.36714300       2.60981200       0.64657100       0.04369947      -0.01122471       0.09926524
10
Lattice="11.0 0.0 0.0 0.0 11.0 0.0 0.0 0.0 11.0" Properties=species:S:1:pos:R:3:REF_forces:R:3:MACE_forces:R:3 config_type=Fe5B1Si4 REF_energy=-40.7418507 MACE_energy=-105.03805403351117 pbc="T T T"
Fe       5.85212000       3.50546000       5.08734000       2.15677100      -0.79414500      -0.20894700      -0.12157204      -0.03741156       0.03497890
Fe       4.00684000       5.71103000       1.22208000       0.17321900       0.19260900       1.30384500      -0.00067048      -0.00145837      -0.00640044
Fe       8.00148000       8.34774000      10.98030000      -0.08363800      -0.04550400       0.02901100      -0.00000000      -0.00000000      -0.00000000
Fe       7.35073000       2.40140000       6.64128000       0.77906300       1.12479900      -0.71056100       0.08704699       0.01595134      -0.00218776
Fe      10.15241000       4.26124000       5.16236000      -1.21868700      -1.07976300       1.03424500      -0.12201707       0.00931453       0.09278060
B        7.50939000       3.71850000       4.30627000       0.81775400       0.01191000       1.18846500       0.19244139      -0.00406056      -0.02521283
Si       0.88259000       3.63568000       4.13155000       0.18457900       0.08807600       0.63549900       0.10510504      -0.03369908      -0.05524615
Si       4.29968000       6.34926000       4.01086000      -0.04470200      -1.65685100      -0.27530200      -0.00963013      -0.03932787       0.03438106
Si       3.89182000       4.30839000       5.36988000      -1.81091900       1.59107900      -0.75492800      -0.09138064       0.08007187      -0.01876888
Si       9.83466000       2.97427000       7.53103000      -0.95344000       0.56779200      -2.24132700      -0.03932306       0.01061970      -0.05432450
10
Lattice="9.0 0.0 0.0 0.0 9.0 0.0 0.0 0.0 9.0" Properties=species:S:1:pos:R:3:REF_forces:R:3:MACE_forces:R:3 config_type=Fe5B1Si4 REF_energy=-42.65563223 MACE_energy=-105.02372532415193 pbc="T T T"
Fe       5.47398000       6.28103000       3.23251000       0.28355300       0.05833700       0.13117200       0.10512086       0.17517812       0.08345778
Fe       3.48819000       2.94480000       4.89866000      -0.87509200      -0.04370600       2.15230300       0.06259882       0.01664408       0.20642746
Fe       8.33854000       1.27421000       2.74786000      -0.46364400       1.92715600       1.33564000      -0.05442496      -0.02298337      -0.01123983
Fe       6.99962000       2.76087000       4.14267000      -0.44746500       1.63766400       1.88762100      -0.02111190       0.08482006       0.13957465
Fe       1.77962000       3.26723000       3.35280000      -0.52218800      -0.67489800       0.43259300      -0.07029073      -0.01623737      -0.02482609
B        4.62666000       4.86714000       2.55939000       0.26614600      -1.03752000       0.98811100      -0.08468440      -0.13208670      -0.10375819
Si       4.18354000       2.39378000       2.99079000       0.43795500       1.50930000      -2.71878500      -0.03446728      -0.05834148      -0.09712714
Si       8.55432000       3.88894000       3.61944000       3.24804800       2.01892900      -1.57919700       0.17333129       0.04093528      -0.00898202
Si       5.93563000       1.17498000       3.69373000      -1.91994400      -5.30800600      -1.48876300      -0.04793426      -0.14189029      -0.08702593
Si       0.45419000       2.68863000       5.46192000      -0.00736800      -0.08725600      -1.14069400      -0.02813743       0.05396168      -0.09650069
10
Lattice="11.0 0.0 0.0 0.0 11.0 0.0 0.0 0.0 11.0" Properties=species:S:1:pos:R:3:REF_forces:R:3:MACE_forces:R:3 config_type=Fe5B1Si4 REF_energy=-34.53347477 MACE_energy=-105.03648478169752 pbc="T T T"
Fe      10.38446000       0.44273000       4.17388000      -0.78237800      -1.86098300       1.10984900      -0.05265273       0.01441960       0.00445045
Fe       5.58579000       5.13476000       2.28318000      -1.35183300       0.99168200      -0.54319900       0.00506018       0.06423973       0.13648467
Fe      10.26893000       9.29847000       6.65501000       0.41344200       0.04548900      -2.04786900       0.03759904      -0.01070697      -0.03075690
Fe       8.86095000       8.11141000       4.18070000       1.29133000       1.24914000       1.04926000      -0.01621003      -0.00055597      -0.00520084
Fe       7.69214000       0.53975000       5.12514000       1.95509500      -0.60911200      -1.00813900       0.04932525      -0.00552216      -0.01615787
B        2.74748000       4.83778000       0.91630000       1.39196400      -0.12393600      -0.20196400      -0.04611194       0.00250898       0.01342987
Si       6.81162000       1.90994000       1.53462000      -0.52184800       1.18261600      -0.41056100      -0.01363239       0.04291111      -0.01821084
Si       6.12115000       4.10888000       0.52255000       1.58173000      -1.75162600       1.46051100       0.03875705      -0.09827637      -0.08342495
Si       0.91081000       9.09353000       4.86613000      -2.08485700       0.69467200       0.51855400      -0.01806939       0.00237772       0.04763313
Si       4.16380000       4.58033000      10.67633000      -1.89264600       0.18205800       0.07355800       0.01593495      -0.01139568      -0.04824672
10
Lattice="11.0 0.0 0.0 0.0 11.0 0.0 0.0 0.0 11.0" Properties=species:S:1:pos:R:3:REF_forces:R:3:MACE_forces:R:3 config_type=Fe5B1Si4 REF_energy=-31.88716106 MACE_energy=-105.06889455002396 pbc="T T T"
Fe       1.14116000       9.49468000      10.94139000       1.03161900      -0.44995100      -0.39877100      -0.02220819       0.00314839      -0.00349461
Fe       7.21367000       6.98307000       4.70883000      -2.94301400      -1.46688800       0.65014200      -0.10672026      -0.00698384      -0.00101635
Fe       4.99485000       7.56523000       3.28858000       0.74465000      -0.23543700      -0.70888800       0.00918478      -0.04766828      -0.01329747
Fe       5.11075000       7.78078000       8.02245000      -0.73545200      -0.54142400       0.97332500       0.00507872       0.00579112      -0.00905809
Fe       5.02580000       6.08327000       6.14288000       1.53107200       2.07986600      -0.44355300       0.05246936       0.02321045      -0.01271955
B        6.46739000       9.52531000       1.42776000      -0.83213000      -0.78314200       0.21534400       0.00981922       0.01379068      -0.01431409
Si       3.36056000       5.78054000       9.88043000      -0.35408900       0.86759200       0.70337500      -0.00928701       0.04669753       0.01915862
Si       3.68875000       6.60974000       1.41965000       0.14004300       0.02695200      -1.00259500       0.04294231       0.06521084       0.00796759
Si       3.95884000       8.08391000      10.56775000       0.21456400       0.93303900      -0.26874100      -0.00140657      -0.10355606       0.01418950
Si       1.56076000       7.66233000       9.57449000       1.20273800      -0.43060700       0.28036300       0.02012764       0.00035915       0.01258445
10
Lattice="11.0 0.0 0.0 0.0 11.0 0.0 0.0 0.0 11.0" Properties=species:S:1:pos:R:3:REF_forces:R:3:MACE_forces:R:3 config_type=Fe5B1Si4 REF_energy=-2.43842541 MACE_energy=-104.94184598255165 pbc="T T T"
Fe       8.11536000       3.96737000       6.09845000       2.52379000       3.39438000      -0.10855200       0.14705731       0.12099738      -0.06617924
Fe       4.00538000       4.00868000       8.30741000       1.03860200       0.49749300      -0.86210200      -0.00462643       0.00154912       0.00448869
Fe       6.21734000       5.49238000       4.54674000      -1.90078500      -0.53233000       2.45773000      -0.12480041      -0.11815261       0.14698455
Fe       6.37295000       3.21617000       6.01003000      -4.31429000      -0.62928100      -0.35144300      -0.20435794      -0.01265306      -0.08651399
Fe       4.28107000       3.14598000       4.09228000       1.68301600       0.43320300       1.57416800       0.03869179       0.00013355       0.03612237
B        8.65122000       7.09833000       7.78974000      -0.81588400      -0.96711600      -2.45875700       0.00390963       0.00829384       0.03438734
Si       8.15838000       5.95236000       4.46257000       2.65955200       1.43037300       0.95638300       0.11758205       0.01369475       0.00832371
Si       7.04021000       6.67768000       6.73922000       0.09201500      -1.71899800      -1.45860000      -0.08269449      -0.01818186      -0.06793329
Si       9.92269000       6.79012000       6.33039000      -1.33422700      -1.06385500      -1.26044000       0.06195201       0.00660396      -0.01872274
Si       6.58826000       7.17809000       3.12641000       0.36821200      -0.84387000       1.51161300       0.04728647      -0.00228506       0.00904261
10
Lattice="6.0 0.0 0.0 0.0 6.0 0.0 0.0 0.0 6.0" Properties=species:S:1:pos:R:3:REF_forces:R:3:MACE_forces:R:3 config_type=Fe5B1Si4 REF_energy=-53.79328822 MACE_energy=-105.14752544256646 pbc="T T T"
Fe       0.50996000       2.31585000       5.10298000      -1.26599000      -0.50951400      -1.36914100      -0.01774371      -0.07497867      -0.04499659
Fe       4.41281000       4.39623000       3.51801000       2.05066400       2.95138500      -2.14682400       0.12796235       0.12142207      -0.36026812
Fe       1.31233000       5.37312000       2.96679000      -9.66985400       0.21848200       6.64889800      -0.13974240      -0.01000829       0.14431414
Fe       5.30196000       5.42046000       5.41384000       1.20364700       0.82237100      -1.12375000       0.12140227       0.06520567       0.15246086
Fe       2.97556000       4.92730000       5.11455000      -0.79718400       0.13310700       0.96147400      -0.19307951      -0.03803765       0.12107650
B        5.46078000       0.52907000       3.64926000      -0.06089300       0.25590500       0.66478200       0.04820069       0.03119989      -0.01356728
Si       2.81628000       5.37752000       2.00180000       6.85751800      -0.72904200      -5.53711500       0.19338180       0.00364187      -0.07413787
Si       3.67557000       2.72706000       4.43876000      -0.82806600      -3.20205400       1.23328500      -0.07248734      -0.10828675       0.05614737
Si       4.50462000       4.23004000       1.13387000       0.98654700      -1.71437000      -0.38631400      -0.06499883       0.02538927       0.02134532
Si       3.47649000       1.50306000       2.12993000       1.52361000       1.77373100       1.05470500      -0.00289532      -0.01554741      -0.00237433
10
Lattice="12.0 0.0 0.0 0.0 12.0 0.0 0.0 0.0 12.0" Properties=species:S:1:pos:R:3:REF_forces:R:3:MACE_forces:R:3 config_type=Fe5B1Si4 REF_energy=-45.66921287 MACE_energy=-104.98422353834258 pbc="T T T"
Fe       4.03767000       2.41086000       6.51410000       1.86803300       0.00585300       0.51063200       0.18476935       0.00795621       0.01646074
Fe       4.79727000      11.75927000       9.09533000       0.54049700       0.45513700      -1.32376800      -0.09281057      -0.03948394       0.16903764
Fe       5.80034000       0.20229000       7.24671000      -0.98588000       0.20802500       0.94137200       0.07183679       0.06661458      -0.17889047