54
Lattice="8.579999685 0.0 0.0 0.0 8.579999685 0.0 0.0 0.0 8.5799996" Properties=species:S:1:pos:R:3:REF_forces:R:3:MACE_forces:R:3 config_type=Fe34B10Si10 REF_energy=-352.89092233 MACE_energy=-353.14929313004603 pbc="T T T"
Fe       1.46495000       0.71583000       1.12880000       3.73230100      -3.41607500      -3.76209700       3.58528059      -3.41585436      -3.43974324
Fe       0.56244000       2.07917000       1.96452000      -3.31290700       4.06628900       2.54508600      -3.33323782       4.04071289       2.32489839
Fe       0.86636000       2.12990000       5.00906000     -10.85567700      -2.87102900      12.20968700     -10.88530181      -2.93327504      12.19235777
Fe       0.24697000       2.61233000       7.83061000      -0.37811800      -2.03816900      -0.08744800      -0.36906144      -2.01996876       0.06709980
Fe       0.35437000       4.66395000       8.16447000      -1.30300600       1.62250000       0.84662400      -1.35654745       1.77041164       0.75637051
Fe       0.83543000       8.00840000       3.01492000       5.54921000      -2.55787300       0.52513800       5.63260761      -2.61999424       0.47623457
Fe       2.03952000       7.84431000       6.63062000      -4.28706100       1.82495200      -1.68802900      -4.10218768       2.00938763      -1.76312721
Fe       3.34318000       0.11090000       2.96052000      -0.46571400      -0.35056300       0.37864800      -0.49261311      -0.16662803       0.46037351
Fe       3.26317000       2.11539000       1.48699000      -3.47884800      -0.03222100       0.61542300      -3.31572232      -0.23977617       0.26524852
Fe       4.14313000       2.75755000       3.31065000      -0.71378000      -2.73118300       1.93004800      -0.66637766      -2.44526221       1.87056699
Fe       2.55051000       2.67374000       7.19710000      -2.55215900      -0.93589000       1.77261600      -2.20339946      -1.01706828       1.67151048
Fe       3.61327000       2.86500000       5.46497000       1.55763200       0.20514300      -0.56676300       1.44591039       0.27664063      -0.27696955
Fe       2.62400000       4.72550000       1.39174000      -1.08585200      -1.19598700       0.59645400      -1.32660909      -1.00023897       0.66812782
Fe       2.20317000       5.21693000       3.87451000      -3.92870900      -4.38103900      -4.92199500      -3.95346253      -4.37214413      -5.13566604
Fe       3.93082000       4.37819000       8.08226000       1.07616800       0.44807800      -0.99700400       0.91511190       0.21191959      -0.99431192
Fe       2.44961000       7.01753000       1.08943000       0.32119000      -1.55635000       3.27006500       0.43615214      -1.57031239       3.35408969
Fe       3.02500000       6.15780000       5.08193000      -1.08486800       1.64126100       3.95415400      -0.22000280       1.87207548       4.19376959
Fe       5.77712000       0.44616000       0.16142000      -2.43333700       0.07175000       4.13474700      -2.39394325       0.40728574       4.16792817
Fe       5.66964000       0.14892000       2.95259000      -3.67617900       1.90971100       0.12919700      -3.67449540       1.63791148       0.33573465
Fe       5.39484000       2.66317000       1.55162000       4.08183700      -3.39937100       3.88213200       4.00084970      -3.75423189       4.17423500
Fe       5.91309000       3.40423000       8.31953000       8.90196200       5.48305700      -2.72562400       8.75242514       5.37076854      -2.75957972
Fe       4.96126000       4.63305000       3.41410000      -3.60269200      -2.00302700       2.25051900      -3.86266743      -2.39062103       2.43317809
Fe       5.11347000       6.81217000       1.78872000      -0.87770500       0.06714300      -1.61156800      -0.74336965       0.14897642      -1.69263806
Fe       5.00950000       6.45991000       8.24507000      -2.30619500      -0.19808200      -1.52355700      -2.20043639      -0.00701520      -1.81003568
Fe       4.64263000       7.71190000       5.75084000       2.50156800       4.23919200      -1.55456800       2.55098180       4.29085267      -1.63400363
Fe       7.32285000       0.33022000       5.03535000      -0.99210900      -0.59745100       4.73628300      -0.92758623      -0.34043439       4.68188096
Fe       6.75330000       1.32958000       7.05071000       0.53851300       2.01290400       0.36400700       0.49495655       1.85079383       0.33648734
Fe       6.82686000       2.53028000       3.66692000      -0.08907100      -0.12987400      -0.26318300       0.01782475      -0.18011479      -0.18957718
Fe       6.83617000       5.56618000       0.59386000       1.74434500       1.47371700      -3.32847200       1.75169275       1.71328319      -3.47032881
Fe       8.27091000       4.29855000       2.87718000       3.23308900       0.33980500       1.37352500       3.07051100       0.16659575       1.32979318
Fe       6.58774000       4.90718000       4.97515000      -1.87594500       0.58060600      -0.05143700      -2.03389453       0.60285413      -0.46544400
Fe       6.86773000       6.79187000       3.27473000       1.52763600      -2.76254700       0.67579100       1.45669751      -2.42090844       0.35702013
Fe       8.09083000       8.29691000       0.84396000      -4.18921500      -1.95965200       9.56442300      -4.12883148      -2.18676959       9.65185647
Fe       6.62133000       7.67903000       7.47205000      -3.65417600       1.51975600      -3.32990400      -4.07120980       1.29132889      -3.47089568
B        3.45077000       6.81738000       6.75435000       2.04131500      -2.79808300       3.80923700       1.95944923      -2.93413280       3.90141132
B        4.67436000       1.10514000       4.73414000       0.75036200       0.95391600      -0.52852700       0.79484954       0.99259646      -0.41691222
B        6.18153000       2.20088000       5.47737000      -4.49435700      -3.20609500      -2.27763700      -4.64206417      -3.15866279      -2.51475807
B        5.08133000       4.10197000       6.35983000       0.35152900       0.25548900      -0.65354500       0.47892288       0.22299424      -0.55745909
B        4.48663000       4.29393000       1.40792000      -0.27448100       1.04603100       0.21283300      -0.23952340       1.25511076       0.21621623
B        4.96286000       5.88068000       6.14703000       0.60492000      -1.85032800       0.29314600       0.42990101      -1.81880097       0.12850143
B        8.17242000       5.65216000       5.55863000       1.00443800       0.65677900      -0.69824300       1.07220011       0.61067249      -0.24121919
B        7.98743000       6.92663000       6.60530000       5.86774900       2.58695800      -4.05103700       5.77649203       2.32975836      -3.41371166
B        7.10769000       5.72812000       6.91109000      -2.33709700      -3.34606800       1.34633400      -2.13300197      -3.44367793       1.47472066
B        7.81665000       6.81498000       8.33858000       5.04350100      -2.41043400       0.97359300       4.96950784      -2.56858058       0.42722488
Si       0.06983000       0.14925000       7.74742000       4.12649000       2.60901100      -8.87608100       3.93371961       2.51541943      -8.80437406
Si       1.93337000       2.41223000       3.74634000      10.14534600       2.98113100     -12.18526000      10.17480249       3.02433600     -11.99354831
Si       0.75978000       6.02813000       1.69309000      -4.13401100      -0.74920300       1.02787300      -4.12697448      -0.88573448       0.93146820
Si       2.22023000       5.10313000       7.16329000      -1.58663400       1.19675500      -1.89967800      -1.64961012       1.17583189      -1.85399401
Si       3.27754000       8.17117000       8.35443000       4.04667900       4.58101600      -2.24829100       3.87882777       4.47592296      -2.34997955
Si       4.48145000       2.18337000       8.34202000      -5.72220500      -5.96162700      -4.99603400      -5.45519401      -5.85198722      -5.18257023
Si       6.36439000       4.54151000       2.12641000       2.28764700      -2.33178900       1.39384200       2.60010868      -2.16176077       1.19858658
Si       4.52267000       6.51460000       3.75633000       0.42177200       5.22743800       1.25328700       0.12425474       5.32530431       1.35846030
Si       7.68278000       0.22257000       3.11016000      -0.17295300       4.89916800      -3.86478000      -0.20470830       4.86467526      -3.94317637
Si       7.35363000       3.38410000       6.13231000       4.40786200       1.27045000       2.62604800       4.40799600       1.44953476       2.96867223
54
Lattice="8.579999685 0.0 0.0 0.0 8.579999685 0.0 0.0 0.0 8.5799996" Properties=species:S:1:pos:R:3:REF_forces:R:3:MACE_forces:R:3 config_type=Fe34B10Si10 REF_energy=-354.71875992 MACE_energy=-355.23322248351997 pbc="T T T"
Fe       0.43313000       1.19321000       2.96848000       1.47291300       2.99028000       0.61180900       1.50419573       2.89806647       0.41126382
Fe       0.91365000       1.12516000       8.09995000       2.76260400      -2.00335600       1.20968300       2.39338697      -1.75962627       1.14100523
Fe       1.17142000       2.67870000       5.23446000      -1.90323000       6.04651700       0.58026800      -1.64676415       6.11676755       0.35361213
Fe       0.60772000       3.85484000       0.87278000       2.66909500       4.89444800       4.53699300       2.68900920       5.08316863       4.10967774
Fe       1.41565000       3.44858000       3.01161000      -0.29549500       2.03729500      -0.74017400      -0.00542751       1.94137902      -0.72522432
Fe       0.04226000       2.91249000       8.09734000      -3.39897200      -2.84207300      -2.69442200      -2.79769831      -2.99648694      -2.48901266
Fe       1.33282000       7.09057000       5.22634000      -0.45239700      -1.35392500       0.92503500      -0.22755327      -1.44028621       0.93107619
Fe       2.06045000       7.92051000       0.98063000      -3.11321000      -0.30108300      -2.49280600      -3.27584528      -0.43598950      -2.51812532
Fe       2.03627000       8.24295000       3.50701000      -1.42216600       4.38122900       0.88517600      -1.54479254       4.09081044       0.63354387
Fe       0.01253000       8.02686000       7.00667000       2.58679700       0.98610200     -11.80201700       2.49415992       0.86150312     -12.08759194
Fe       3.00353000       0.57289000       6.13981000      -1.03922300       0.18357300       0.93137300      -0.77093190       0.15833810       0.97349837
Fe       3.69949000       2.65196000       7.51811000       2.76433000      -4.34399200      -3.80269000       2.59544752      -4.13552138      -3.72256524
Fe       2.94478000       6.44154000       3.03987000       7.21319500      -3.66655800      -1.17614100       6.99917184      -3.42750769      -0.99845314
Fe       2.94309000       5.75189000       6.64956000      -6.24071800      -0.74678300       3.86021800      -6.42970521      -0.66608852       4.04133205
Fe       3.71160000       8.39321000       1.86324000       2.24845700      -0.43546600       0.28887200       2.42518988      -0.05685012       0.68245670
Fe       4.07810000       8.43915000       4.32840000       2.88035800       1.28304800      -0.49181300       2.84493618       1.29621350      -0.82211762
Fe       5.57499000       0.73262000       6.31633000      -3.12774100      -1.68249800      -0.98058200      -2.75403637      -1.75641459      -0.93345962
Fe       4.70712000       1.94493000       1.65492000      -2.04675700       4.97917500      -3.67899600      -2.09614510       4.71803916      -3.42787373
Fe       4.73401000       4.18392000       1.24748000       0.71501700       1.80608500      -0.06999200       0.70374719       1.95998889      -0.14488637
Fe       4.56687000       4.22266000       4.39618000       0.73801700       3.32591500      -2.10569900       0.46974006       3.18323280      -2.09147960
Fe       4.51224000       4.61167000       7.05684000       2.53211900      -0.41024200       0.53825400       2.93460477      -0.68710180       0.48215215
Fe       6.32808000       6.81945000       4.24288000      -3.20445400      -0.33519400      -1.28892300      -2.78396283      -0.23083374      -1.08495690
Fe       6.22240000       7.17309000       0.16230000      -3.30904600      -2.75215800       1.90373500      -3.45103869      -2.95938182       2.01897875
Fe       4.54224000       7.44382000       7.03838000       0.17895600      -5.02037800      -8.74618400       0.34545482      -5.26631898      -8.85667182
Fe       4.73272000       8.55832000       8.35561000      -0.10588400       8.96287400       6.54083400      -0.39028340       9.27697401       6.15386669
Fe       7.67285000       2.82429000       2.17742000      -2.12886900      -0.76272600      -2.06587500      -2.14415682      -0.79655578      -1.94782180
Fe       6.74071000       1.77406000       4.33655000       0.47479500       0.50025500      -0.42349800       0.05700809       0.39810948      -0.42472697
Fe       7.16362000       1.61896000       6.68131000       5.11373900       1.83737400       0.70818800       4.66048865       1.56966176       0.61232911
Fe       6.73653000       4.13840000       7.84564000       0.19062300       0.32905600       3.59274800       0.17375457       0.45613806       3.57721293
Fe       6.61248000       5.35948000       2.44590000       0.96755600      -0.77403900      -0.47053600       0.87177713      -0.67367814      -0.39962317
Fe       8.39074000       4.95678000       4.82580000       0.50677700       3.21370700       1.22596300       0.53157039       3.16660842       1.09839705
Fe       6.62275000       6.29700000       6.29237000       0.91106900      -0.58785400       1.74696000       0.82895669      -0.50052056       1.59824912
Fe       8.00875000       8.14674000       2.12563000      -1.25903800      -1.94608200      -3.37077000      -0.87879179      -1.83999771      -3.42037901
Fe       7.96861000       8.10559000       4.08816000       1.24434400       0.03207600       4.40361200       0.72755434       0.02192270       4.57681355
B        3.14587000       1.61638000       2.59818000      -3.96044800      -1.57388800      -2.24367700      -3.97930809      -1.46473983      -1.99830343
B        4.07212000       1.93087000       3.78701000       0.55534200       0.12762300      -3.25123200       0.34533895       0.12012281      -3.26967381
B        2.24412000       1.90783000       4.05913000      -1.80380000      -9.70850100      -5.48536600      -1.89632496     -10.11919792      -5.61255837
B        2.90130000       3.06657000       4.45062000       2.48509300       7.60479000      -1.50334300       2.86233221       7.26890264      -1.50212500
B        2.82587000       3.80138000       5.80651000       0.21675600       2.27927400       3.92227300       0.23701524       2.26613997       4.00529582
B        2.60929000       5.04297000       1.66311000       0.12617300      -0.77075900      -0.46531300      -0.00019289      -0.85630274      -0.47331830
B        2.47198000       4.95014000       4.32601000      -0.76752800      -1.31946700       0.35153300      -0.78326196      -1.20706564       0.48530892
B        2.73354000       7.81887000       7.66829000      -1.47869400      -0.15377200       0.00458000      -1.55532932      -0.16333071       0.23234673
B        5.68071000       2.28134000       7.79544000      -0.95924500       0.41857400       1.11780500      -0.97902941       0.41283621       1.10002841
B        7.77536000       3.70665000       3.76574000      -0.44877700      -1.48394500      -0.38974400      -0.52805748      -1.44198630      -0.09775691
Si       0.79518000       0.92195000       5.77957000      -1.66645900      -4.94136200      -1.10925300      -1.63977520      -4.95848788      -0.98494448
Si       0.88055000       4.20706000       6.73551000       1.15626000       3.58432200      -0.32349000       1.10017053       3.63168028      -0.21790237
Si       1.15025000       6.44729000       2.43826000      -7.77651300      -1.83655100      -1.54918700      -7.76483045      -1.74204114      -1.69700226
Si       2.82820000       3.29548000       0.50208000      -4.05499500       1.58525200       5.32597100      -4.03987555       1.34854364       5.24833827
Si       4.14031000       6.38272000       0.30005000      -2.16949800      -2.44928300       2.57761000      -2.35111665      -2.36908328       2.43268888
Si       3.68345000       6.43010000       5.01209000       3.98893100       0.98565200      -2.13453700       3.86126659       1.16978235      -2.19649585
Si       5.73751000       0.59059000       2.53265000       5.08228400      -4.90021500       2.23852200       5.09638896      -4.82247290       2.51925604
Si       4.51163000       2.47994000       5.36819000       2.60737700      -2.86786400       7.12589500       2.81738405      -2.55963400       7.11577175
Si       6.43436000       3.75222000       5.86206000       1.38008400       0.66155200      -3.64612400       1.48923881       0.69067077      -3.71327766
Si       8.06432000       7.52318000       8.55473000       2.36409700      -3.06603600      11.34847700       2.65494588      -2.77209868      11.32382742
18
Lattice="6.5 0.0 0.0 0.0 6.5 0.0 0.0 0.0 6.5" Properties=species:S:1:pos:R:3:REF_forces:R:3:MACE_forces:R:3 config_type=Fe12B3Si3 REF_energy=-113.87843945 MACE_energy=-112.98870346579051 pbc="T T T"
Fe       5.40234000       5.43492000       1.53729000      -1.39532100       2.04028400       0.71142300      -1.01983784       1.80886983       0.69406356
Fe       2.09750000       2.10361000       0.54730000       2.35673700      -0.33103000       1.27254800       2.58423152      -0.16670794       1.44851767
Fe       2.84360000       1.73250000       3.81271000       2.28004000      -1.18251600      -0.27344700       2.28304380      -1.02155616      -0.18811785
Fe       0.77541000       4.93717000       1.04317000       1.56096300      -3.83372900       1.76362000       1.17901074      -3.36836420       1.64458214
Fe       0.07665000       3.70431000       3.74351000      -0.75952900      -0.39175400      -2.23189700      -1.27131211      -0.47635132      -2.23585433
Fe       4.77171000       3.58949000       4.78220000      -1.99219600      -4.62409700       0.48420500      -1.60390040      -4.52157952       0.38223962
Fe       4.12430000       1.49867000       1.46476000       0.29771700      -2.38794700       0.28396300       0.21720622      -2.68184200       0.12623608
Fe       0.95387000       5.17746000       5.28728000      -0.57085000      -0.50160400      -1.80733600      -0.94030629      -0.61781275      -1.38188170
Fe       1.93602000       3.09888000       2.36598000      -0.08855100       0.43128300      -0.27209000      -0.20010442       0.44559572      -0.73527326
Fe       5.69037000       1.28357000       4.20026000      -0.40866000      -0.49067900       0.18976600      -0.87783261      -0.34307317       0.20358541
Fe       1.94321000       2.86141000       5.39871000      -0.55906500       0.73218900      -1.80086600      -0.42335575       0.67087234      -1.96325167
Fe       4.33122000       5.38124000       5.25469000      -0.73272900       4.56545400       1.52017900      -0.52009064       4.37216727       1.59900449
B        0.37598000       1.64060000       1.21420000      -3.21263000       2.85095800       0.76078000      -2.89533515       2.67718415       0.73293133
B        1.88110000       4.04794000       3.96741000       2.48956600       2.45119300      -0.32261600       2.65627507       2.44789841      -0.24300016
B        3.63878000       0.94242000       5.41981000      -0.01444500       0.67937600       0.95779200       0.08768347       0.80632790       1.06613790
Si       1.19380000       0.26963000       0.19686000       0.54051800       0.24528300      -1.93219100       0.60730908       0.07720066      -1.77669471
Si       4.57825000       3.47658000       1.16117000       0.15934200       1.26766700      -0.81102600       0.16920645       1.53789276      -0.84573874
Si       1.09558000       0.76720000       2.75124000       0.04909300      -1.52033200       1.50719200      -0.03189114      -1.64672199       1.47251423
54
Lattice="8.579999685 0.0 0.0 0.0 8.579999685 0.0 0.0 0.0 8.5799996" Properties=species:S:1:pos:R:3:REF_forces:R:3:MACE_forces:R:3 config_type=Fe34B10Si10 REF_energy=-356.0869274 MACE_energy=-356.86492140546136 pbc="T T T"
Fe       0.92877000       1.08311000       2.12831000      -0.53214900      -1.15432400       0.53007800      -0.74349104      -1.16683292       0.39230633
Fe       1.12794000       0.45096000       7.37327000      -2.86345100       2.18226700       1.45805300      -2.79648025       1.95705407       1.39971541
Fe       0.91289000       3.61082000       1.96264000      -1.66570100       0.50807500      -4.76654600      -1.77021508       0.39584394      -4.82680060
Fe       0.97242000       3.25012000       3.83975000      -0.85629000      -1.23507100      -0.91491200      -1.11965528      -1.27106339      -0.12714312
Fe       1.43574000       3.84332000       5.84621000      -1.94378300      -0.72872400       4.94145300      -2.08343268      -0.67488598       4.79980480
Fe       0.45897000       5.99881000       1.32384000       1.86679900       1.45939200      -0.33976700       1.62867596       1.49016742      -0.18427118
Fe       0.05714000       6.25044000       6.01250000       0.66851500      -0.88142700       1.67028200       0.64353379      -0.76186366       1.66374798
Fe       1.87526000       7.05991000       7.27744000      -5.90957000       6.81146600       5.95768600      -5.72131035       7.29488801       6.01086812
Fe       4.21220000       0.80536000       3.81626000       0.44958900      -1.97725700       0.54591300       0.43669013      -1.86619991       0.38763198
Fe       2.64196000       0.75311000       5.88605000       0.80305000      -0.92688600      -1.50973400       0.48205559      -1.02337943      -1.52086614
Fe       2.51735000       4.27963000       7.86001000      -0.17185400       2.88247300       0.00075600      -0.00638950       2.90759791       0.13000758
Fe       2.46175000       4.76211000       4.38544000       2.27245000       6.36429500      -0.60000700       2.21555818       6.39255093      -0.78615278
Fe       3.99132000       4.46692000       6.09268000      -0.21521200      -1.96607600      -0.25853400      -0.17848456      -2.29972677      -0.20060530
Fe       4.03283000       6.20484000       2.50717000       0.32509400      -1.83048700       1.07686200       0.40205437      -1.76418344       1.04152063
Fe       2.62183000       8.12097000       1.25125000      -5.45108600      -1.04608100      -0.88869000      -5.48903436      -1.14922491      -0.63694608
Fe       2.34208000       7.49949000       3.33705000      -1.45221900       0.10179900       1.96325000      -1.28509164       0.16713537       1.64362016
Fe       4.67554000       0.98699000       8.35162000       1.97529500       0.95938300       0.07305200       1.67053128       0.90022377       0.28285786
Fe       4.68615000       2.28426000       1.60336000       6.03713100       4.39249100       1.56082500       6.24445998       4.31637082       1.10703984
Fe       4.95897000       4.28949000       0.91503000       1.24258400       3.77490300      -1.07876200       0.85668219       3.59730782      -1.22708002
Fe       5.62605000       3.84953000       3.25301000      -4.56775200       3.43217100       2.09526400      -4.51704868       3.53478621       1.89449230
Fe       5.63153000       5.70233000       4.67966000       0.04558900       0.36352900      -0.74034800       0.02837360      -0.03457996      -0.58090460
Fe       5.00954000       6.14620000       6.89198000       4.51113600      -2.60361300       1.43664400       4.56864268      -2.34959129       1.43344813
Fe       5.34723000       7.32984000       0.56425000       3.41130600      -7.55812200      -7.44238600       3.55795679      -7.03576019      -7.30033579
Fe       4.57141000       8.20633000       1.67615000      -2.51651100       6.57056000       9.11650700      -2.73978566       6.02883672       8.75372899
Fe       5.67084000       7.83697000       6.02451000      -0.02983000       3.57151200       0.33120700      -0.00475112       3.55638774       0.32400487
Fe       7.65837000       1.05332000       0.64336000       1.95813700       2.93603900      -3.62028800       1.87550843       2.86671900      -3.56537001
Fe       7.23579000       1.49494000       3.62009000       0.88838800      -1.50203300       3.00240400       0.92341706      -1.44646507       3.08903038
Fe       6.96409000       1.59543000       6.70415000       0.40175100      -2.57633900      -0.54943900       0.53289373      -2.52347460      -0.60674257
Fe       6.97946000       3.05325000       2.27831000       3.01329100      -2.85779700      -7.80747400       2.46890071      -2.96229717      -7.28772081
Fe       7.05854000       3.62734000       7.13255000       0.94483300       2.42104600       2.56329500       1.03964311       2.47684138       2.51507014
Fe       7.47490000       4.49325000       0.92243000      -3.13561000       0.06366500       0.11142200      -2.86443676       0.51591138      -0.12502363
Fe       7.76499000       5.40883000       4.05655000       3.42051700      -2.49950500       1.10150300       3.48290537      -2.60837307       1.13758501
Fe       6.91686000       6.16423000       2.38917000      -4.34160700       0.52717700      -3.24358900      -4.32466585       0.53522943      -3.21500509
Fe       7.31773000       7.39473000       4.73130000      -1.41907300       3.06948200       1.38572900      -1.50607359       2.94900175       1.44439474
B        1.63947000       5.44017000       2.85377000      -1.37965300       1.67099600      -0.34434500      -1.49042814       1.77878330      -0.54834605
B        3.47444000       1.29905000       1.69513000      -6.04542900      -7.46227000      -1.52467000      -5.88864897      -7.10017568      -1.02880904
B        2.31673000       1.42955000       3.77944000      -1.85652800      -2.14982900       3.21956500      -1.67508167      -1.97328624       3.41730579
B        3.17088000       0.01260000       8.16689000      -2.14308300      -0.12737100      -3.63430700      -1.99535240       0.10070883      -3.58697315
B        2.48887000       2.23189000       2.44876000      -1.30373000       3.96631200      -0.94871100      -0.89524891       3.81079672      -1.29286039
B        3.55016000       3.21990000       0.17024000       2.13469500      -3.52588700       0.23974700       2.10383139      -3.39823585       0.31512076
B        3.12966000       3.07291000       4.24572000      -6.99085300       0.34377600      -0.16579100      -7.04684702       0.15837250      -0.14716723
B        2.38358000       5.95301000       6.34325000       2.25901800      -8.76611800      -6.31465800       2.15542144      -9.28764142      -6.56603440
B        4.46260000       2.62992000       4.23823000       7.08507900      -1.75449200       0.40993300       7.17154945      -1.91055103       0.44626346
B        7.51183000       3.59374000       3.85724000       1.49621300      -1.20378300       3.39561400       1.55565060      -1.05044759       3.20973124
Si       0.50050000       1.66927000       5.10425000      -1.02554400      -2.67263500       2.61432900      -0.77449667      -2.92039758       2.66828021
Si       0.41923000       4.50138000       8.15701000       0.82744200      -0.47721100      -2.57541600       1.08151727      -0.41066152      -2.90337955
Si       2.90131000       4.25049000       1.93860000       2.71957100       0.04497600      -0.88170100       2.87453585      -0.01139449      -1.08794034
Si       3.74353000       6.85388000       5.19884000      -1.20766000       1.80214700      -2.20114300      -1.05391143       2.07068476      -2.10609873
Si       3.54209000       6.47938000       8.21357000      -0.45014500      -1.75854100       4.24377300      -0.53810282      -2.03086263       4.41300396
Si       4.55252000       1.74669000       6.40118000       0.28733400       0.20348600      -1.69136000       0.20487287       0.11059780      -1.58001703
Si       5.87020000       3.30923000       5.41310000       1.93974000       0.55942400      -1.14043100       1.57310087       0.81762786      -1.08536861
Si       6.68392000       0.09389000       2.07850000      -2.78148600      -1.30329400       2.70552900      -2.40872502      -1.22166074       2.77912618
Si       7.30980000       7.36953000       0.08595000       4.18267400      -0.22507900      -1.67891000       4.11200801      -0.48608315      -1.68113635
Si       8.41387000       7.50606000       2.97540000       5.08859000       1.78741200      -0.88875800       5.02621873       2.00887425      -0.89460826
54
Lattice="8.579999685 0.0 0.0 0.0 8.579999685 0.0 0.0 0.0 8.5799996" Properties=species:S:1:pos:R:3:REF_forces:R:3:MACE_forces:R:3 config_type=Fe34B10Si10 REF_energy=-359.84864784 MACE_energy=-360.0315372431505 pbc="T T T"
Fe       0.39531000       2.37288000       0.87042000       3.27925500       2.43832800      -1.60261100       3.20134191       2.69485202      -1.73436371
Fe       0.75383000       1.65209000       3.11094000       1.30783500      -0.34615400      -0.09267000       1.29093031      -0.88840301       0.12116940
Fe       1.33201000       3.79282000       7.26231000      -2.40668100      -1.18131200       0.32245500      -2.60553247      -1.11992988       0.30567304
Fe       0.64436000       4.41396000       2.97573000       2.42004200      -2.26182600       0.38963900       2.47846719      -2.04748243       0.34871814
Fe       0.14751000       6.42079000       3.51005000      -3.07002100       1.32407200      -2.30638400      -3.03178025       1.24794683      -2.32657375