54
Lattice="8.579999685 0.0 0.0 0.0 8.579999685 0.0 0.0 0.0 8.5799996" Properties=species:S:1:pos:R:3:REF_forces:R:3:MACE_forces:R:3 config_type=Fe34B10Si10 REF_energy=-352.89092233 MACE_energy=-353.30293086174186 pbc="T T T"
Fe       1.46495000       0.71583000       1.12880000       3.73230100      -3.41607500      -3.76209700       3.68772731      -3.53720693      -3.54706323
Fe       0.56244000       2.07917000       1.96452000      -3.31290700       4.06628900       2.54508600      -3.21834483       3.97724150       2.35395809
Fe       0.86636000       2.12990000       5.00906000     -10.85567700      -2.87102900      12.20968700     -10.95016775      -2.95205001      12.22043476
Fe       0.24697000       2.61233000       7.83061000      -0.37811800      -2.03816900      -0.08744800      -0.42367537      -1.91484071       0.09073003
Fe       0.35437000       4.66395000       8.16447000      -1.30300600       1.62250000       0.84662400      -1.33056740       1.60994044       0.77098381
Fe       0.83543000       8.00840000       3.01492000       5.54921000      -2.55787300       0.52513800       5.70730726      -2.53122706       0.38005964
Fe       2.03952000       7.84431000       6.63062000      -4.28706100       1.82495200      -1.68802900      -4.07168269       1.96117320      -1.64975624
Fe       3.34318000       0.11090000       2.96052000      -0.46571400      -0.35056300       0.37864800      -0.53036993      -0.22049823       0.47423942
Fe       3.26317000       2.11539000       1.48699000      -3.47884800      -0.03222100       0.61542300      -3.42511046      -0.30007641       0.16883815
Fe       4.14313000       2.75755000       3.31065000      -0.71378000      -2.73118300       1.93004800      -0.61298617      -2.39095078       1.84778271
Fe       2.55051000       2.67374000       7.19710000      -2.55215900      -0.93589000       1.77261600      -2.30000247      -1.14971309       1.71355763
Fe       3.61327000       2.86500000       5.46497000       1.55763200       0.20514300      -0.56676300       1.46027821       0.27043147      -0.27241899
Fe       2.62400000       4.72550000       1.39174000      -1.08585200      -1.19598700       0.59645400      -1.35085714      -1.01858315       0.70100565
Fe       2.20317000       5.21693000       3.87451000      -3.92870900      -4.38103900      -4.92199500      -3.86025335      -4.41257937      -4.98657136
Fe       3.93082000       4.37819000       8.08226000       1.07616800       0.44807800      -0.99700400       1.03585511       0.29928477      -0.91176432
Fe       2.44961000       7.01753000       1.08943000       0.32119000      -1.55635000       3.27006500       0.45134293      -1.64564645       3.25921852
Fe       3.02500000       6.15780000       5.08193000      -1.08486800       1.64126100       3.95415400      -0.64270425       1.65860575       4.05721542
Fe       5.77712000       0.44616000       0.16142000      -2.43333700       0.07175000       4.13474700      -2.46949781       0.40438774       4.21846325
Fe       5.66964000       0.14892000       2.95259000      -3.67617900       1.90971100       0.12919700      -3.63302197       1.65295423       0.31327341
Fe       5.39484000       2.66317000       1.55162000       4.08183700      -3.39937100       3.88213200       4.01735759      -3.63760441       4.02505825
Fe       5.91309000       3.40423000       8.31953000       8.90196200       5.48305700      -2.72562400       8.73714371       5.47814522      -2.72452770
Fe       4.96126000       4.63305000       3.41410000      -3.60269200      -2.00302700       2.25051900      -3.72895840      -2.22265682       2.36725498
Fe       5.11347000       6.81217000       1.78872000      -0.87770500       0.06714300      -1.61156800      -0.70430579       0.07350828      -1.56071043
Fe       5.00950000       6.45991000       8.24507000      -2.30619500      -0.19808200      -1.52355700      -2.26714365       0.02561089      -1.66770135
Fe       4.64263000       7.71190000       5.75084000       2.50156800       4.23919200      -1.55456800       2.61717619       4.24802184      -1.58880453
Fe       7.32285000       0.33022000       5.03535000      -0.99210900      -0.59745100       4.73628300      -1.02359199      -0.38848643       4.82142384
Fe       6.75330000       1.32958000       7.05071000       0.53851300       2.01290400       0.36400700       0.56659304       1.82400430       0.27434948
Fe       6.82686000       2.53028000       3.66692000      -0.08907100      -0.12987400      -0.26318300      -0.07045298      -0.22072001      -0.24410886
Fe       6.83617000       5.56618000       0.59386000       1.74434500       1.47371700      -3.32847200       1.80404494       1.61981447      -3.38787609
Fe       8.27091000       4.29855000       2.87718000       3.23308900       0.33980500       1.37352500       3.21644285       0.23859843       1.34133946
Fe       6.58774000       4.90718000       4.97515000      -1.87594500       0.58060600      -0.05143700      -2.14327962       0.59559374      -0.27287469
Fe       6.86773000       6.79187000       3.27473000       1.52763600      -2.76254700       0.67579100       1.40042451      -2.40660960       0.40919473
Fe       8.09083000       8.29691000       0.84396000      -4.18921500      -1.95965200       9.56442300      -4.22374541      -2.33410011       9.67079305
Fe       6.62133000       7.67903000       7.47205000      -3.65417600       1.51975600      -3.32990400      -3.88686987       1.23289490      -3.52057389
B        3.45077000       6.81738000       6.75435000       2.04131500      -2.79808300       3.80923700       1.90415408      -2.69546704       3.92647296
B        4.67436000       1.10514000       4.73414000       0.75036200       0.95391600      -0.52852700       0.82279031       0.86859194      -0.46389940
B        6.18153000       2.20088000       5.47737000      -4.49435700      -3.20609500      -2.27763700      -4.70882623      -3.15162798      -2.46287644
B        5.08133000       4.10197000       6.35983000       0.35152900       0.25548900      -0.65354500       0.58359787       0.34021268      -0.65747874
B        4.48663000       4.29393000       1.40792000      -0.27448100       1.04603100       0.21283300      -0.27006581       1.21438866       0.16370453
B        4.96286000       5.88068000       6.14703000       0.60492000      -1.85032800       0.29314600       0.64980523      -1.92030590       0.12179957
B        8.17242000       5.65216000       5.55863000       1.00443800       0.65677900      -0.69824300       1.03161667       0.76277690      -0.34686860
B        7.98743000       6.92663000       6.60530000       5.86774900       2.58695800      -4.05103700       5.84695982       2.53277624      -3.74398433
B        7.10769000       5.72812000       6.91109000      -2.33709700      -3.34606800       1.34633400      -2.34846447      -3.52029262       1.28421723
B        7.81665000       6.81498000       8.33858000       5.04350100      -2.41043400       0.97359300       5.18089314      -2.41404719       0.76195891
Si       0.06983000       0.14925000       7.74742000       4.12649000       2.60901100      -8.87608100       3.95421522       2.63261672      -8.86839567
Si       1.93337000       2.41223000       3.74634000      10.14534600       2.98113100     -12.18526000      10.23351960       3.11089430     -12.00723003
Si       0.75978000       6.02813000       1.69309000      -4.13401100      -0.74920300       1.02787300      -4.12909905      -0.86584867       1.04035625
Si       2.22023000       5.10313000       7.16329000      -1.58663400       1.19675500      -1.89967800      -1.77761910       1.18702754      -1.93922512
Si       3.27754000       8.17117000       8.35443000       4.04667900       4.58101600      -2.24829100       3.90946366       4.54007913      -2.47759272
Si       4.48145000       2.18337000       8.34202000      -5.72220500      -5.96162700      -4.99603400      -5.48960406      -5.82587805      -5.13244057
Si       6.36439000       4.54151000       2.12641000       2.28764700      -2.33178900       1.39384200       2.60820169      -2.24413353       1.25402577
Si       4.52267000       6.51460000       3.75633000       0.42177200       5.22743800       1.25328700       0.14932580       5.39460663       1.40726143
Si       7.68278000       0.22257000       3.11016000      -0.17295300       4.89916800      -3.86478000      -0.31421239       4.76390142      -3.99281684
Si       7.35363000       3.38410000       6.13231000       4.40786200       1.27045000       2.62604800       4.32924367       1.40306725       2.98858921
54
Lattice="8.579999685 0.0 0.0 0.0 8.579999685 0.0 0.0 0.0 8.5799996" Properties=species:S:1:pos:R:3:REF_forces:R:3:MACE_forces:R:3 config_type=Fe34B10Si10 REF_energy=-354.71875992 MACE_energy=-355.34457038136077 pbc="T T T"
Fe       0.43313000       1.19321000       2.96848000       1.47291300       2.99028000       0.61180900       1.61389106       2.98756144       0.30784359
Fe       0.91365000       1.12516000       8.09995000       2.76260400      -2.00335600       1.20968300       2.59162965      -2.17370734       1.12597462
Fe       1.17142000       2.67870000       5.23446000      -1.90323000       6.04651700       0.58026800      -1.67475730       6.30803731       0.60465766
Fe       0.60772000       3.85484000       0.87278000       2.66909500       4.89444800       4.53699300       2.67076864       5.09710321       4.28026939
Fe       1.41565000       3.44858000       3.01161000      -0.29549500       2.03729500      -0.74017400      -0.29173994       1.93515982      -0.67186058
Fe       0.04226000       2.91249000       8.09734000      -3.39897200      -2.84207300      -2.69442200      -3.13079085      -2.75271619      -2.52466354
Fe       1.33282000       7.09057000       5.22634000      -0.45239700      -1.35392500       0.92503500      -0.20730422      -1.49763580       0.80816459
Fe       2.06045000       7.92051000       0.98063000      -3.11321000      -0.30108300      -2.49280600      -3.24003982      -0.54071582      -2.32800007
Fe       2.03627000       8.24295000       3.50701000      -1.42216600       4.38122900       0.88517600      -1.52264359       4.19624824       0.54933173
Fe       0.01253000       8.02686000       7.00667000       2.58679700       0.98610200     -11.80201700       2.50877239       0.82837640     -11.93078612
Fe       3.00353000       0.57289000       6.13981000      -1.03922300       0.18357300       0.93137300      -0.71341716      -0.02269871       1.08251535
Fe       3.69949000       2.65196000       7.51811000       2.76433000      -4.34399200      -3.80269000       2.57028504      -4.14010431      -3.69773969
Fe       2.94478000       6.44154000       3.03987000       7.21319500      -3.66655800      -1.17614100       7.11623701      -3.34893307      -0.90778688
Fe       2.94309000       5.75189000       6.64956000      -6.24071800      -0.74678300       3.86021800      -6.61653658      -0.76688849       3.87888169
Fe       3.71160000       8.39321000       1.86324000       2.24845700      -0.43546600       0.28887200       2.35147045      -0.24723351       0.53010095
Fe       4.07810000       8.43915000       4.32840000       2.88035800       1.28304800      -0.49181300       2.94955568       1.49179679      -0.81051546
Fe       5.57499000       0.73262000       6.31633000      -3.12774100      -1.68249800      -0.98058200      -3.00028525      -1.73829273      -1.03206811
Fe       4.70712000       1.94493000       1.65492000      -2.04675700       4.97917500      -3.67899600      -2.15027119       4.81432521      -3.40084298
Fe       4.73401000       4.18392000       1.24748000       0.71501700       1.80608500      -0.06999200       0.72356882       2.00381644      -0.15498165
Fe       4.56687000       4.22266000       4.39618000       0.73801700       3.32591500      -2.10569900       0.62287793       3.51031528      -2.31840058
Fe       4.51224000       4.61167000       7.05684000       2.53211900      -0.41024200       0.53825400       2.99647267      -0.70193431       0.65102191
Fe       6.32808000       6.81945000       4.24288000      -3.20445400      -0.33519400      -1.28892300      -2.86441229      -0.32093902      -1.09439548
Fe       6.22240000       7.17309000       0.16230000      -3.30904600      -2.75215800       1.90373500      -3.55880922      -2.98212837       1.90957252
Fe       4.54224000       7.44382000       7.03838000       0.17895600      -5.02037800      -8.74618400       0.16521672      -5.31162335      -8.86692740
Fe       4.73272000       8.55832000       8.35561000      -0.10588400       8.96287400       6.54083400      -0.24608179       9.49325462       6.44583421
Fe       7.67285000       2.82429000       2.17742000      -2.12886900      -0.76272600      -2.06587500      -2.11239229      -0.69407210      -1.92626811
Fe       6.74071000       1.77406000       4.33655000       0.47479500       0.50025500      -0.42349800       0.14657962       0.53659617      -0.57061566
Fe       7.16362000       1.61896000       6.68131000       5.11373900       1.83737400       0.70818800       4.97940303       1.65819576       0.64483456
Fe       6.73653000       4.13840000       7.84564000       0.19062300       0.32905600       3.59274800       0.34807056       0.46259251       3.69603471
Fe       6.61248000       5.35948000       2.44590000       0.96755600      -0.77403900      -0.47053600       0.91757977      -0.77055056      -0.37425702
Fe       8.39074000       4.95678000       4.82580000       0.50677700       3.21370700       1.22596300       0.53861896       3.13827818       1.09522899
Fe       6.62275000       6.29700000       6.29237000       0.91106900      -0.58785400       1.74696000       0.85595724      -0.46323452       1.52993134
Fe       8.00875000       8.14674000       2.12563000      -1.25903800      -1.94608200      -3.37077000      -0.86923761      -1.96821747      -3.54455436
Fe       7.96861000       8.10559000       4.08816000       1.24434400       0.03207600       4.40361200       0.69720319      -0.04444625       4.64578414
B        3.14587000       1.61638000       2.59818000      -3.96044800      -1.57388800      -2.24367700      -4.10067993      -1.55907047      -2.21038670
B        4.07212000       1.93087000       3.78701000       0.55534200       0.12762300      -3.25123200       0.40437054      -0.04783131      -3.40626884
B        2.24412000       1.90783000       4.05913000      -1.80380000      -9.70850100      -5.48536600      -1.83551739      -9.88377136      -5.58905489
B        2.90130000       3.06657000       4.45062000       2.48509300       7.60479000      -1.50334300       2.77277389       7.04593464      -1.33836282
B        2.82587000       3.80138000       5.80651000       0.21675600       2.27927400       3.92227300       0.28818240       2.14511449       3.97731959
B        2.60929000       5.04297000       1.66311000       0.12617300      -0.77075900      -0.46531300      -0.04480988      -0.94249011      -0.47022153
B        2.47198000       4.95014000       4.32601000      -0.76752800      -1.31946700       0.35153300      -0.91979930      -1.11612613       0.32972983
B        2.73354000       7.81887000       7.66829000      -1.47869400      -0.15377200       0.00458000      -1.41186180      -0.12904530       0.10797059
B        5.68071000       2.28134000       7.79544000      -0.95924500       0.41857400       1.11780500      -1.05038861       0.37580160       1.11745903
B        7.77536000       3.70665000       3.76574000      -0.44877700      -1.48394500      -0.38974400      -0.50167277      -1.37539894      -0.18800112
Si       0.79518000       0.92195000       5.77957000      -1.66645900      -4.94136200      -1.10925300      -1.65164532      -5.10152811      -0.91345306
Si       0.88055000       4.20706000       6.73551000       1.15626000       3.58432200      -0.32349000       1.13210887       3.71085744      -0.27686458
Si       1.15025000       6.44729000       2.43826000      -7.77651300      -1.83655100      -1.54918700      -7.83056588      -1.64407309      -1.75409201
Si       2.82820000       3.29548000       0.50208000      -4.05499500       1.58525200       5.32597100      -4.14728191       1.39375433       5.14347926
Si       4.14031000       6.38272000       0.30005000      -2.16949800      -2.44928300       2.57761000      -2.30702661      -2.38897529       2.43847753
Si       3.68345000       6.43010000       5.01209000       3.98893100       0.98565200      -2.13453700       3.91978015       1.19150374      -2.03283242
Si       5.73751000       0.59059000       2.53265000       5.08228400      -4.90021500       2.23852200       5.21309852      -5.01241539       2.54681160
Si       4.51163000       2.47994000       5.36819000       2.60737700      -2.86786400       7.12589500       2.70767972      -2.59080810       7.30982225
Si       6.43436000       3.75222000       5.86206000       1.38008400       0.66155200      -3.64612400       1.48939845       0.69267662      -3.78853755
Si       8.06432000       7.52318000       8.55473000       2.36409700      -3.06603600      11.34847700       2.70841754      -2.73969474      11.36568755
18
Lattice="6.5 0.0 0.0 0.0 6.5 0.0 0.0 0.0 6.5" Properties=species:S:1:pos:R:3:REF_forces:R:3:MACE_forces:R:3 config_type=Fe12B3Si3 REF_energy=-113.87843945 MACE_energy=-112.50481350300822 pbc="T T T"
Fe       5.40234000       5.43492000       1.53729000      -1.39532100       2.04028400       0.71142300      -1.14576848       2.05754511       0.77811568
Fe       2.09750000       2.10361000       0.54730000       2.35673700      -0.33103000       1.27254800       2.76236692      -0.25610604       1.33569883
Fe       2.84360000       1.73250000       3.81271000       2.28004000      -1.18251600      -0.27344700       2.26821326      -1.09302756      -0.32047027
Fe       0.77541000       4.93717000       1.04317000       1.56096300      -3.83372900       1.76362000       1.54557892      -3.67370748       1.58196404
Fe       0.07665000       3.70431000       3.74351000      -0.75952900      -0.39175400      -2.23189700      -0.82284646      -0.46389819      -2.37234921
Fe       4.77171000       3.58949000       4.78220000      -1.99219600      -4.62409700       0.48420500      -1.83613583      -4.55101100       0.46038527
Fe       4.12430000       1.49867000       1.46476000       0.29771700      -2.38794700       0.28396300       0.37106146      -2.68525589       0.14561594
Fe       0.95387000       5.17746000       5.28728000      -0.57085000      -0.50160400      -1.80733600      -0.80638260      -0.67568288      -1.39146261
Fe       1.93602000       3.09888000       2.36598000      -0.08855100       0.43128300      -0.27209000      -0.23636741       0.60181257      -0.36146915
Fe       5.69037000       1.28357000       4.20026000      -0.40866000      -0.49067900       0.18976600      -0.66408272      -0.38096465       0.23886748
Fe       1.94321000       2.86141000       5.39871000      -0.55906500       0.73218900      -1.80086600      -0.72183067       1.20204172      -2.21654943
Fe       4.33122000       5.38124000       5.25469000      -0.73272900       4.56545400       1.52017900      -0.62443842       4.50865776       1.60595596
B        0.37598000       1.64060000       1.21420000      -3.21263000       2.85095800       0.76078000      -3.23775561       2.73593021       1.03517259
B        1.88110000       4.04794000       3.96741000       2.48956600       2.45119300      -0.32261600       2.50767511       2.20301126      -0.24324966
B        3.63878000       0.94242000       5.41981000      -0.01444500       0.67937600       0.95779200       0.01100413       0.77775363       1.09805125
Si       1.19380000       0.26963000       0.19686000       0.54051800       0.24528300      -1.93219100       0.58000058      -0.01079217      -1.88601386
Si       4.57825000       3.47658000       1.16117000       0.15934200       1.26766700      -0.81102600       0.19254193       1.33677884      -0.76182295
Si       1.09558000       0.76720000       2.75124000       0.04909300      -1.52033200       1.50719200      -0.14283410      -1.63308522       1.27356011
54
Lattice="8.579999685 0.0 0.0 0.0 8.579999685 0.0 0.0 0.0 8.5799996" Properties=species:S:1:pos:R:3:REF_forces:R:3:MACE_forces:R:3 config_type=Fe34B10Si10 REF_energy=-356.0869274 MACE_energy=-357.0565683145318 pbc="T T T"
Fe       0.92877000       1.08311000       2.12831000      -0.53214900      -1.15432400       0.53007800      -0.60434163      -1.16440378       0.47011806
Fe       1.12794000       0.45096000       7.37327000      -2.86345100       2.18226700       1.45805300      -2.74983523       2.10641069       1.41048048
Fe       0.91289000       3.61082000       1.96264000      -1.66570100       0.50807500      -4.76654600      -1.58134373       0.07454629      -4.44146895
Fe       0.97242000       3.25012000       3.83975000      -0.85629000      -1.23507100      -0.91491200      -1.07324452      -1.03731473      -0.66283225
Fe       1.43574000       3.84332000       5.84621000      -1.94378300      -0.72872400       4.94145300      -2.06715653      -0.53619720       4.70801907
Fe       0.45897000       5.99881000       1.32384000       1.86679900       1.45939200      -0.33976700       1.67021756       1.46346649      -0.17166272
Fe       0.05714000       6.25044000       6.01250000       0.66851500      -0.88142700       1.67028200       0.62372977      -0.75691134       1.74590730
Fe       1.87526000       7.05991000       7.27744000      -5.90957000       6.81146600       5.95768600      -5.62097484       6.96886148       5.79490232
Fe       4.21220000       0.80536000       3.81626000       0.44958900      -1.97725700       0.54591300       0.53262297      -1.79324520       0.46871225
Fe       2.64196000       0.75311000       5.88605000       0.80305000      -0.92688600      -1.50973400       0.49492900      -1.09163639      -1.52793602
Fe       2.51735000       4.27963000       7.86001000      -0.17185400       2.88247300       0.00075600      -0.18784738       3.06116373       0.07842429
Fe       2.46175000       4.76211000       4.38544000       2.27245000       6.36429500      -0.60000700       2.27328738       6.36952740      -0.46275543
Fe       3.99132000       4.46692000       6.09268000      -0.21521200      -1.96607600      -0.25853400      -0.34538692      -2.20323844      -0.14092614
Fe       4.03283000       6.20484000       2.50717000       0.32509400      -1.83048700       1.07686200       0.34122963      -1.78284942       1.11102113
Fe       2.62183000       8.12097000       1.25125000      -5.45108600      -1.04608100      -0.88869000      -5.61128111      -1.08819025      -0.67016501
Fe       2.34208000       7.49949000       3.33705000      -1.45221900       0.10179900       1.96325000      -1.30515690       0.10769642       1.58553812
Fe       4.67554000       0.98699000       8.35162000       1.97529500       0.95938300       0.07305200       1.70560053       0.86651813       0.34379908
Fe       4.68615000       2.28426000       1.60336000       6.03713100       4.39249100       1.56082500       6.16021504       4.36337122       1.10612342
Fe       4.95897000       4.28949000       0.91503000       1.24258400       3.77490300      -1.07876200       0.80622978       3.55110275      -1.16935648
Fe       5.62605000       3.84953000       3.25301000      -4.56775200       3.43217100       2.09526400      -4.72547753       3.41970574       1.96536803
Fe       5.63153000       5.70233000       4.67966000       0.04558900       0.36352900      -0.74034800       0.11617623      -0.04948553      -0.58158191
Fe       5.00954000       6.14620000       6.89198000       4.51113600      -2.60361300       1.43664400       4.57745702      -2.57644025       1.28312838
Fe       5.34723000       7.32984000       0.56425000       3.41130600      -7.55812200      -7.44238600       3.19804750      -7.17567591      -7.13610497
Fe       4.57141000       8.20633000       1.67615000      -2.51651100       6.57056000       9.11650700      -2.27725386       6.22058788       8.84998780
Fe       5.67084000       7.83697000       6.02451000      -0.02983000       3.57151200       0.33120700      -0.04121806       3.68666602       0.46369980
Fe       7.65837000       1.05332000       0.64336000       1.95813700       2.93603900      -3.62028800       1.77832288       2.79690405      -3.41413226
Fe       7.23579000       1.49494000       3.62009000       0.88838800      -1.50203300       3.00240400       1.06617475      -1.49644789       3.00449753
Fe       6.96409000       1.59543000       6.70415000       0.40175100      -2.57633900      -0.54943900       0.43785201      -2.38664854      -0.46220617
Fe       6.97946000       3.05325000       2.27831000       3.01329100      -2.85779700      -7.80747400       2.67445425      -2.88886492      -7.43478092
Fe       7.05854000       3.62734000       7.13255000       0.94483300       2.42104600       2.56329500       0.99547272       2.26909444       2.34567756
Fe       7.47490000       4.49325000       0.92243000      -3.13561000       0.06366500       0.11142200      -2.80776385       0.41518858      -0.12843814
Fe       7.76499000       5.40883000       4.05655000       3.42051700      -2.49950500       1.10150300       3.64812621      -2.68584830       1.14254732
Fe       6.91686000       6.16423000       2.38917000      -4.34160700       0.52717700      -3.24358900      -4.39710752       0.89002500      -3.26358845
Fe       7.31773000       7.39473000       4.73130000      -1.41907300       3.06948200       1.38572900      -1.46531962       2.97699053       1.32613191
B        1.63947000       5.44017000       2.85377000      -1.37965300       1.67099600      -0.34434500      -1.40151870       1.77701090      -0.51604986
B        3.47444000       1.29905000       1.69513000      -6.04542900      -7.46227000      -1.52467000      -6.13831622      -7.01321888      -1.31532354
B        2.31673000       1.42955000       3.77944000      -1.85652800      -2.14982900       3.21956500      -1.85994017      -1.95123702       3.29110533
B        3.17088000       0.01260000       8.16689000      -2.14308300      -0.12737100      -3.63430700      -2.08293775       0.14960421      -3.46966502
B        2.48887000       2.23189000       2.44876000      -1.30373000       3.96631200      -0.94871100      -0.92557081       3.67125160      -1.25446028
B        3.55016000       3.21990000       0.17024000       2.13469500      -3.52588700       0.23974700       2.15947740      -3.60957080       0.39060888
B        3.12966000       3.07291000       4.24572000      -6.99085300       0.34377600      -0.16579100      -6.82175235       0.08869753      -0.15774589
B        2.38358000       5.95301000       6.34325000       2.25901800      -8.76611800      -6.31465800       2.12563774      -9.06611391      -6.44634210
B        4.46260000       2.62992000       4.23823000       7.08507900      -1.75449200       0.40993300       6.95337901      -1.82204652       0.34622519
B        7.51183000       3.59374000       3.85724000       1.49621300      -1.20378300       3.39561400       1.49029710      -0.99576815       3.22350121
Si       0.50050000       1.66927000       5.10425000      -1.02554400      -2.67263500       2.61432900      -0.78469172      -2.97957199       2.54048073
Si       0.41923000       4.50138000       8.15701000       0.82744200      -0.47721100      -2.57541600       1.10709052      -0.43950823      -2.75815753
Si       2.90131000       4.25049000       1.93860000       2.71957100       0.04497600      -0.88170100       2.69144387       0.00121896      -1.02916981
Si       3.74353000       6.85388000       5.19884000      -1.20766000       1.80214700      -2.20114300      -1.08777924       1.95219390      -2.06738078
Si       3.54209000       6.47938000       8.21357000      -0.45014500      -1.75854100       4.24377300      -0.57108316      -2.01495106       4.42628365
Si       4.55252000       1.74669000       6.40118000       0.28733400       0.20348600      -1.69136000       0.29135263       0.23251607      -1.67211972
Si       5.87020000       3.30923000       5.41310000       1.93974000       0.55942400      -1.14043100       1.69019373       0.82574374      -1.26616450
Si       6.68392000       0.09389000       2.07850000      -2.78148600      -1.30329400       2.70552900      -2.56378681      -1.23897853       2.87128976
Si       7.30980000       7.36953000       0.08595000       4.18267400      -0.22507900      -1.67891000       4.45045273      -0.36237145      -1.75420498
Si       8.41387000       7.50606000       2.97540000       5.08859000       1.78741200      -0.88875800       5.03861619       1.90067085      -0.91885879
54
Lattice="8.579999685 0.0 0.0 0.0 8.579999685 0.0 0.0 0.0 8.5799996" Properties=species:S:1:pos:R:3:REF_forces:R:3:MACE_forces:R:3 config_type=Fe34B10Si10 REF_energy=-359.84864784 MACE_energy=-360.43171222654706 pbc="T T T"
Fe       0.39531000       2.37288000       0.87042000       3.27925500       2.43832800      -1.60261100       3.16867418       2.59996254      -1.70575719
Fe       0.75383000       1.65209000       3.11094000       1.30783500      -0.34615400      -0.09267000       1.38970915      -0.67502321       0.04742666
Fe       1.33201000       3.79282000       7.26231000      -2.40668100      -1.18131200       0.32245500      -2.55173375      -1.20032457       0.18804760
Fe       0.64436000       4.41396000       2.97573000       2.42004200      -2.26182600       0.38963900       2.47342360      -2.06317340       0.21124985
Fe       0.14751000       6.42079000       3.51005000      -3.07002100       1.32407200      -2.30638400      -3.19090795       1.34768197      -2.49829843