18
Lattice="6.5 0.0 0.0 0.0 6.5 0.0 0.0 0.0 6.5" Properties=species:S:1:pos:R:3:REF_forces:R:3:MACE_forces:R:3 config_type=Fe12B3Si3 REF_energy=-122.60259194 MACE_energy=-126.94886326668274 pbc="T T T"
Fe       5.09292000       4.71692000       1.17657000      -0.43533200      -0.51500600      -0.95471400      -0.32996867      -0.37313160      -0.37285596
Fe       5.77166000       0.42197000       5.05407000      -0.02893800      -0.71596500       0.04838100      -0.08024265      -0.77744405       0.30481529
Fe       5.13387000       2.35523000       3.84734000      -1.89765700      -0.10869600       1.91264400      -1.82980032       0.16490816       1.28101988
Fe       4.28586000       4.44305000       5.45001000       0.16330100      -0.45505100      -0.78988200       0.21090976      -0.19845385      -0.71324345
Fe       1.94340000       5.71942000       3.43498000      -0.80849200       0.79590200      -1.52941800      -0.69054738       0.91556678      -1.59563161
Fe       2.23403000       5.41245000       5.55948000       0.02203500       1.10579100       1.46023700      -0.09805025       0.54440063       1.32348378
Fe       6.31948000       3.13845000       2.34683000       1.54883600       0.55665100      -0.85220000       1.17570664       0.99326608      -0.81656518
Fe       4.04920000       1.84413000       0.54644000       0.54070000       0.26521300       0.10478400       0.52276762       0.13244439       0.01377107
Fe       6.03875000       2.85985000       6.10045000       0.55348700      -0.00632300       0.45841600       0.85280041      -0.21688428       0.43809119
Fe       0.58685000       1.29742000       1.31584000      -2.59691900      -1.19344800       0.74087100      -2.48521111      -1.44775503       0.56033844
Fe       4.91298000       0.15320000       2.42984000      -0.06700500       1.23581300      -0.27632200       0.02959097       0.92908280      -0.22790055
Fe       1.93111000       3.24513000       0.71062000       0.70722800       0.46984000      -0.28427000       0.40733189       0.69644127      -0.23309355
B        2.37195000       1.25222000       1.40537000       1.65160600      -0.35926700       0.26079300       1.76925299      -0.16511399       0.38049804
B        0.08066000       0.99775000       3.29118000       0.16566700      -0.31648400      -0.67714100       0.35630960      -0.33069560      -0.45173921
B        3.93898000       5.93711000       3.88036000      -0.16859400      -0.37277700       1.63812600      -0.31311169      -0.51863554       1.59712555
Si       1.06372000       3.69612000       4.51440000      -0.53709400      -0.15329500      -0.11394200      -0.30739943      -0.11215017      -0.41867578
Si       1.71394000       1.26695000       5.84256000       0.03292600      -0.14907500      -1.01285500       0.14803054      -0.17520946      -0.96058603
Si       3.33060000       3.91426000       2.72453000       1.15424600      -0.08382500      -0.13350900       0.66163110      -0.06063655      -0.10885194
18
Lattice="6.5 0.0 0.0 0.0 6.5 0.0 0.0 0.0 6.5" Properties=species:S:1:pos:R:3:REF_forces:R:3:MACE_forces:R:3 config_type=Fe12B3Si3 REF_energy=-121.31244081 MACE_energy=-126.25248486842833 pbc="T T T"
Fe       1.54567000       5.09347000       2.96054000      -0.05755400       0.22926400       0.19630700      -0.12701929      -0.17136623       0.15716865
Fe       5.37031000       4.33464000       3.33914000      -0.58258500       0.74000300       1.13110700      -0.46250020       0.46250627       0.76243227
Fe       3.42840000       1.36213000       4.29281000      -1.01656700       0.10268700       0.03844400      -1.12033244       0.05205858       0.27722369
Fe       3.57265000       3.88513000       0.65516000       0.30850200       1.33476100       1.08278900       0.54392168       0.95824862       0.91560822
Fe       1.41689000       0.59785000       1.78345000       0.74253900       0.82871700       0.20224800       0.70023867       0.90072838       0.49930619
Fe       0.97121000       3.19177000       4.49857000      -0.23778700       0.31663600       0.49523500      -0.32298637       0.28051715       0.23631925
Fe       0.10960000       3.90804000       1.55392000       0.39793300      -0.41835000      -0.70952800       0.18355607      -0.51232087      -0.52369892
Fe       3.14656000       3.96526000       4.20821000       0.80956500      -0.29266500       1.03843300       0.78321756      -0.27211210       0.73664518
Fe       5.48304000       3.37518000       6.03157000       0.56050000      -0.52763000      -1.40935100       0.18116600      -0.46076575      -0.96187108
Fe       3.88217000       0.69368000       1.82654000      -1.75284600       0.65177800      -1.13448000      -1.18546169       0.40811440      -1.22623698
Fe       1.77093000       2.74360000       0.38456000      -0.62318100      -1.15549800      -0.16030100      -0.70102308      -1.04095004       0.01309223
Fe       6.43892000       5.63221000       5.07465000      -0.92523200      -0.35829100      -0.46582300      -0.45853230       0.03941941      -0.19446818
B        4.32987000       5.76823000       4.64532000      -0.20450600      -0.71291100      -0.34975500      -0.09250369      -0.25881924      -0.12528567
B        4.86401000       0.31075000       3.35677000       1.37279600      -1.05687500       1.71697400       1.14393283      -0.94908490       1.25360981
B        1.72795000       2.62743000       2.69252000       0.25169800      -0.16894100      -0.71378200       0.19054289       0.08891875      -0.42307296
Si       5.92922000       1.16658000       0.91137000       0.17077100       0.77306600      -0.40821800      -0.34293307       0.82415153      -0.82621228
Si       1.55137000       0.52682000       5.95862000       0.76711600       0.45167400      -0.21249400       0.81535001       0.35436824      -0.37142112
Si       0.23429000       1.22377000       3.73067000       0.01883900      -0.73742700      -0.33780600       0.27136642      -0.70361220      -0.19913830
18
Lattice="6.5 0.0 0.0 0.0 6.5 0.0 0.0 0.0 6.5" Properties=species:S:1:pos:R:3:REF_forces:R:3:MACE_forces:R:3 config_type=Fe12B3Si3 REF_energy=-119.7015825 MACE_energy=-124.9176747800339 pbc="T T T"
Fe       0.61406000       3.48190000       4.00853000       0.05000800       0.69203900      -0.65899000       0.12159267       0.45525955      -0.59195753
Fe       4.97626000       0.76382000       4.44673000      -0.35037700       1.47026600       0.84275300      -0.28132984       1.11860422       0.68195319
Fe       3.34553000       4.74129000       4.52266000      -0.04235300       0.38767900      -0.51635200       0.16796775       0.60184024      -0.55166398
Fe       2.72320000       4.03412000       2.53731000       0.14210100      -0.10011400      -0.31343200       0.65749695       0.01679123      -0.18907815
Fe       0.83336000       4.50867000       1.52689000      -1.17306600       1.62258800       0.10072700      -1.46019214       1.35094535      -0.14622595
Fe       0.92240000       1.42661000       5.10358000       0.70633700       0.51501800       0.05106700       0.46852594       0.86304781      -0.10836520
Fe       5.37460000       5.19700000       3.85308000       1.71590800      -0.94477900      -1.05904100       1.50826761      -0.67076514      -0.94619041
Fe       1.59919000       5.65956000       5.19133000      -1.80142700       0.34157800       0.33855300      -1.74207258      -0.01211340       0.26486809
Fe       1.42206000       0.28899000       2.84488000      -0.46217700      -0.05934400      -0.48497300      -0.65718702      -0.30404532      -0.71061479
Fe       0.14336000       0.29234000       0.36155000       0.19959000      -0.37895800       0.35421900       0.37798002      -0.14658501       0.41669062
Fe       4.01865000       3.23019000       5.76943000       0.89386800      -0.42884300       1.55421800       1.15313292      -0.19789416       1.47306366
Fe       5.37081000       1.08656000       2.03514000      -0.92791000      -0.01223000       0.80912400      -0.69639606       0.19638864       0.79859476
B        2.67090000       1.02966000       4.10204000       1.31464700      -0.52838700       0.81909000       1.06088287      -0.46937364       0.74284285
B        3.04001000       2.23804000       1.93097000       0.69846800      -0.94741100       0.43315700       0.51986594      -0.98888805       0.36633209
B        3.45335000       1.43986000       5.58522000      -0.99169000      -0.73456400      -1.02779300      -1.04961186      -0.97218457      -0.58900867
Si       5.04048000       3.39294000       2.10200000      -0.29496400       0.38301900       0.21545600      -0.11369689       0.54426454       0.17601187
Si       5.63077000       4.87350000       6.41151000      -0.48492700      -0.59127500      -1.23672100      -0.51763939      -0.64153808      -1.22143500
Si       0.92620000       2.28662000       1.33607000       0.80796400      -0.68628200      -0.22106200       0.48241311      -0.74375421       0.13418255
18
Lattice="6.5 0.0 0.0 0.0 6.5 0.0 0.0 0.0 6.5" Properties=species:S:1:pos:R:3:REF_forces:R:3:MACE_forces:R:3 config_type=Fe12B3Si3 REF_energy=-121.85787139 MACE_energy=-126.33021588111455 pbc="T T T"
Fe       3.74522000       1.93951000       3.03104000       0.15344600      -1.30313800       0.57095700      -0.35895330      -1.03584262       0.54104324
Fe       5.13632000       4.25308000       0.92736000       1.61810900       1.29717800      -0.09026100       1.36540837       0.73042219       0.06301246
Fe       2.38772000       3.64647000       1.36253000       0.34718900       0.24437500       0.26687600       0.30577069      -0.08115231       0.32684528
Fe       4.52682000       2.03507000       0.88629000       0.10309200      -0.28281500      -0.32066600       0.18782696      -0.00627686      -0.61885641
Fe       0.72889000       5.71397000       0.71694000       0.39426700      -0.05723500      -0.70851200       0.19122144      -0.08015995      -0.57064240
Fe       1.28004000       2.60278000       3.63876000      -0.05139800      -0.26602100      -0.17015500       0.08574871      -0.26169249      -0.32011049
Fe       4.25735000       4.17533000       2.99842000      -0.51788500      -0.00171000       1.38499700      -0.37856399       0.47507122       1.07358550
Fe       5.17853000       0.17226000       2.33142000       0.65502400      -0.75404400      -0.07820000       0.64981890      -0.68127568      -0.35267079
Fe       3.30921000       2.19924000       5.35160000       0.29955200      -0.43084800       0.01416400       0.14299470      -0.53587782       0.29764425
Fe       5.15839000       5.82552000       4.66434000      -0.09919600       0.87520900       0.22737800      -0.04130385       0.82734692       0.33722475
Fe       0.99579000       3.32661000       5.82380000      -0.58192300      -0.10817300       0.50157800      -0.19532973       0.06478633       0.78390110
Fe       3.66613000       4.36288000       5.83709000      -1.35170800       0.84645900      -0.30712200      -0.85682502       0.82813662      -0.48421410
B        2.84060000       0.39334000       4.32751000      -0.35193100      -0.06164300      -0.39291200       0.04848513       0.12767712      -0.22059065
B        1.64536000       1.24443000       5.37304000      -0.64125300       0.06658900       0.28190300      -0.77916541       0.15478935       0.26343300
B        5.94501000       1.69280000       3.57914000      -0.18823400      -0.20229800      -0.92962600      -0.40358535      -0.39995960      -0.63818804
Si       1.95275000       4.93141000       4.29137000       0.04269600       0.05062900      -0.61354000      -0.07766063      -0.21060551      -0.72703571
Si       1.17675000       0.50357000       2.60680000      -0.03007500       0.17892800       0.39125200      -0.17597640       0.11831213       0.35255648
Si       3.01916000       0.15396000       0.36058000       0.20022900      -0.09144200      -0.02811200       0.29008877      -0.03369903      -0.10693745
18
Lattice="6.5 0.0 0.0 0.0 6.5 0.0 0.0 0.0 6.5" Properties=species:S:1:pos:R:3:REF_forces:R:3:MACE_forces:R:3 config_type=Fe12B3Si3 REF_energy=-123.17032223 MACE_energy=-127.36239065950323 pbc="T T T"
Fe       2.06128000       1.35192000       5.56271000       0.18198700      -0.16204600       0.32079200       0.24392657      -0.26021078       0.22586126
Fe       0.20628000       0.74352000       0.47533000      -0.01212900      -1.80057200       0.81247600      -0.41774664      -2.05282569       1.03061449
Fe       4.21352000       4.38008000       1.14975000       0.22760200      -0.36679400      -0.09969700       0.52788522      -0.77524497       0.09758547
Fe       2.54249000       3.63216000       4.72939000       1.19327500      -0.66455700       0.07221400       1.15373461      -0.41355647       0.03687365
Fe       3.83205000       5.53820000       4.79909000       0.51612300       1.20124600       0.12884600       0.32578807       1.06020220       0.04277721
Fe       5.42994000       1.39640000       2.52309000      -0.42467600       2.12164400      -0.14102300       0.08368428       2.09115061      -0.15199833
Fe       5.04777000       3.40995000       5.34287000      -0.21348800       0.67090800       0.05014900       0.08269718       0.86685626       0.03994283
Fe       4.02538000       0.24009000       0.60478000      -0.67052300       0.23330400      -0.82188900      -0.52547404       0.82343290      -0.64485465
Fe       5.70945000       1.27912000       5.05205000      -0.15485500      -0.64748300      -0.75514100      -0.09664264      -0.70850508      -0.91428958
Fe       1.92991000       4.99192000       1.74667000       0.17963600      -0.15990000       0.40814400      -0.30133873       0.06628607       0.55814739
Fe       1.43771000       1.03607000       3.08283000      -1.21763900       0.01257600       0.14875200      -1.30704260      -0.18864485       0.08249736
Fe       0.86801000       4.47220000       6.13084000      -0.41825400       0.29579200      -0.15826700      -0.56477711       0.17090606      -0.00934286
B        2.11019000       0.52917000       1.24201000       0.09094000       0.18445000      -0.68560600       0.23375789       0.21995817      -0.75043230
B        4.85706000       2.12229000       0.43616000       0.59367600      -0.04809400       0.32134000       0.67478928       0.00162095       0.32446928
B        4.77818000       6.22659000       2.28373000      -0.06851400      -1.72155000       0.50330900      -0.18157117      -2.53333237       0.26253502
Si       3.22130000       2.33163000       2.83281000       1.18133600       0.37223400      -0.18261100       1.08202880       0.73876811      -0.24714138
Si       0.66472000       2.69680000       1.28352000       0.35904800       1.34635600       0.36533200       0.46925467       1.38904938       0.29143026
Si       0.57749000       3.56144000       3.74467000      -1.34354500      -0.86751400      -0.28711800      -1.48295363      -0.49591051      -0.27467511
18
Lattice="6.5 0.0 0.0 0.0 6.5 0.0 0.0 0.0 6.5" Properties=species:S:1:pos:R:3:REF_forces:R:3:MACE_forces:R:3 config_type=Fe12B3Si3 REF_energy=-121.03497159 MACE_energy=-125.69352370359908 pbc="T T T"
Fe       1.44158000       5.30001000       3.73990000       0.80024600       0.97127900      -0.80130000       0.36594680       0.74341019      -0.86738409
Fe       4.76448000       5.46703000       0.81860000      -0.12557700      -0.35798900      -1.48527900       0.85064936      -0.65096383      -0.76266649
Fe       4.93607000       4.01866000       4.50215000      -0.53630200      -0.06755300       0.28519800      -0.50432874      -0.24839563       0.17161004
Fe       2.54967000       4.74564000       1.15826000      -0.30791600      -0.46889400      -0.15805100      -0.76171270      -0.41745304      -0.58217080
Fe       0.34169000       3.61061000       2.35881000      -0.53529500      -0.58811100       1.00699100      -0.47645290      -0.05391838       0.89399242
Fe       2.35204000       1.58777000       2.07914000       0.57705800      -0.58459200       1.04343400       0.84487521      -0.67315413       0.86333548
Fe       0.62223000       1.04055000       5.16059000      -1.24617800      -0.24006500      -0.54335800      -1.25548162      -0.29064751      -0.29557641
Fe       2.51060000       2.14408000       4.43449000       0.07351100       1.18492700       0.27387000       0.21674497       1.22708694       0.16039786
Fe       0.54955000       4.27737000       5.47880000       1.11038600       0.55751700       0.11547900       1.03942614       0.79418870       0.02063084
Fe       3.71982000       5.75480000       3.16466000       0.38624700       0.77644400       0.53907400       0.39113246       0.79582236       0.36298989
Fe       1.21496000       2.60205000       0.49559000       0.91097100      -0.21628300      -1.40025700       0.52062140      -0.47518021      -1.31052022
Fe       4.33544000       3.44997000       2.32066000      -0.11113800      -1.13838700      -1.07293100      -0.41136381      -0.99139199      -0.83766624
B        3.57517000       5.19498000       5.67296000       0.02909700       0.11803400      -0.79539700      -0.00767930       0.37664769      -0.49657101
B        3.19573000       2.72151000       0.39559000       0.66935000      -0.21215000       0.29819600       0.76613558      -0.13700831       0.36850318
B        5.29133000       1.80166000       3.36631000      -0.61772000       0.64460000       0.91903000       0.05152148       0.63307351       0.62421606
Si       4.71818000       1.13888000       1.41442000      -0.10426200       0.47055800       1.10054900      -0.40634017       0.38639367       0.92420666
Si       4.28766000       1.00056000       5.32612000       0.59498300      -0.65540400      -0.44130900       0.68608790      -0.71688927      -0.31991149
Si       5.54384000       3.13095000       0.10152000      -1.56746300      -0.19393100       1.11606100      -1.90978207      -0.30162077       1.08258436
18
Lattice="6.5 0.0 0.0 0.0 6.5 0.0 0.0 0.0 6.5" Properties=species:S:1:pos:R:3:REF_forces:R:3:MACE_forces:R:3 config_type=Fe12B3Si3 REF_energy=-121.19386358 MACE_energy=-125.9082130007512 pbc="T T T"
Fe       5.14122000       2.95219000       5.73762000       1.07543100      -1.06473800       0.02092700       0.67066992      -0.58845395       0.06965817
Fe       3.44786000       4.68004000       0.56712000      -1.37847800      -1.17368900      -1.22189300      -1.13265574      -1.22918210      -0.82926655
Fe       2.82511000       0.89193000       5.14374000       0.13259800       0.26355500       0.40255800       0.20928657       0.37085994       0.35305338
Fe       5.03673000       0.78459000       3.29286000      -1.26774300      -0.96440500       0.08926900      -0.95457496      -0.98669940       0.02018478
Fe       0.04417000       2.47999000       3.55018000       0.57964100       0.99759000      -0.45241400       0.48052513       0.98831723      -0.41455878
Fe       3.80021000       2.12637000       1.07746000       0.18867900      -0.22764200      -0.16605100       0.11633211      -0.03430872      -0.24948258
Fe       0.53180000       4.23439000       5.25038000       0.13821800       0.93416200      -0.11674800       0.24636786       0.81645972      -0.36819839
Fe       5.29502000       5.19686000       1.57483000       0.63888900      -0.01824700       1.31027900       0.68508054       0.17502110       1.36077982
Fe       4.81829000       5.67816000       5.38797000       0.86574200       0.53683900       0.64982300       0.48708102       0.33468936       0.79188395
Fe       0.56712000       1.81843000       0.78586000       0.14808100       0.22443800       0.34380200       0.34424369       0.26295321       0.31480123
Fe       3.21410000       3.62554000       4.76333000      -0.48471200       0.05504400      -0.37129100      -0.39821126       0.08578084      -0.11940285
Fe       2.59511000       0.04657000       1.62822000      -0.15086800       0.20181900      -0.19923600      -0.24400776       0.02800874      -0.14851802
B        1.70005000       4.09276000       3.58297000       0.50063800      -0.74222000       4.89755200       0.63555710      -0.57455152       4.95014917
B        0.43268000       5.13544000       0.50731000      -0.62762600       1.39885300      -1.30398100      -0.67090338       1.19704501      -1.27976819
B        5.33026000       4.94544000       3.73632000       0.22606000      -0.48056500      -0.66320000       0.15216452      -0.55320561      -0.85275341
Si       2.28782000       2.00516000       2.88410000       0.36394600       0.12179600       0.89171700       0.32681500      -0.01690668       0.87300925
Si       1.34690000       4.20152000       1.89580000      -0.46324100      -0.07460600      -4.35928800      -0.55490893      -0.28780513      -4.49051003
Si       0.33802000       0.64631000       5.13835000      -0.48525500       0.01201700       0.24817700      -0.39886144       0.01197796       0.01893907
18
Lattice="6.5 0.0 0.0 0.0 6.5 0.0 0.0 0.0 6.5" Properties=species:S:1:pos:R:3:REF_forces:R:3:MACE_forces:R:3 config_type=Fe12B3Si3 REF_energy=-121.83631974 MACE_energy=-126.51802773773949 pbc="T T T"
Fe       2.32189000       0.53919000       4.43628000       0.62348700       0.62161200      -0.30037500       0.72304633       0.35148699      -0.28590333
Fe       0.85962000       3.43397000       4.87265000      -0.12660300       0.92813600      -0.14204200       0.19612876       0.83883824      -0.02939006
Fe       3.14478000       3.12586000       5.02575000       0.59721000      -0.57204800       0.02419900       0.50826940      -0.60615828       0.28865540
Fe       5.60986000       1.49763000       1.76525000      -0.15598800       0.54195100       0.25919200       0.11744380       0.57967230       0.29613097
Fe       1.35689000       1.02230000       1.46682000      -0.86025900      -1.50913200      -0.02236000      -0.85783034      -1.31930276       0.12630545
Fe       1.53652000       5.21131000       2.91051000       0.14684300       0.83240900       0.92372000      -0.16477001       0.99996096       0.41743761
Fe       5.42176000       2.41204000       4.26359000      -0.63460300      -0.19320800      -0.86948000      -0.76209294      -0.34653634      -0.80304037
Fe       2.69083000       2.61526000       0.85844000       0.58099200       0.46413400      -0.42101400       0.68739399       0.58213504      -0.27628400
Fe       3.69565000       0.41570000       1.52873000      -0.38863400      -1.79496800       0.36436300      -0.82808736      -1.49035152       0.27467913
Fe       5.29642000       0.71728000       5.92537000      -1.13878800       0.21021100       0.33601900      -1.06557878       0.20020393       0.30410841
Fe       2.43404000       4.91723000       0.69122000      -0.67719900       0.42452500      -0.50222800      -0.83129035       0.30160016      -0.80978299
Fe       0.38184000       3.41911000       2.21740000      -0.05622500      -0.60860100      -0.28154900       0.05839706      -0.35675790      -0.53146805
B        0.60495000       2.82168000       0.18824000       0.45495900      -0.82411900       1.12072500       0.28594412      -0.85911107       1.33844047
B        4.46032000       5.11021000       0.86305000      -0.16597900       0.94437700      -0.17078000      -0.26564162       0.82042165      -0.23165805
B        4.50224000       0.61436000       3.35420000      -0.21081700       0.21979200       0.95013200      -0.07658623       0.30118511       0.85640059
Si       0.41559000       5.76097000       5.42597000       1.25807400      -0.80112100      -0.45097400       1.40802288      -0.54423170      -0.46445079
Si       5.04192000       3.28673000       0.17892000       0.12615100       0.01238900      -0.22951000       0.03851153      -0.34889425      -0.30191331
Si       3.63769000       4.96485000       3.77806000       0.62737900       1.10366300      -0.58803800       0.82871974       0.89583943      -0.16826709
18
Lattice="6.5 0.0 0.0 0.0 6.5 0.0 0.0 0.0 6.5" Properties=species:S:1:pos:R:3:REF_forces:R:3:MACE_forces:R:3 config_type=Fe12B3Si3 REF_energy=-121.52509482 MACE_energy=-125.94709137759284 pbc="T T T"
Fe       5.35369000       5.79500000       1.92697000       0.93009700       0.21272200       0.30334600       0.82084370       0.55157815       0.11005229
Fe       2.76775000       2.65119000       2.12707000      -0.32421800      -0.48392200      -0.17557400      -0.00305534      -0.20392322      -0.12563154
Fe       0.95782000       3.82419000       5.40578000       0.10971500      -0.17899400      -2.04142600      -0.11898567       0.00769070      -1.90860317
Fe       0.03218000       4.37962000       0.68550000       0.11657700      -0.41259800       0.85513400      -0.08987221      -0.37541218       0.49899926
Fe       1.84755000       0.88889000       3.81096000      -1.44375300      -0.68888000       0.86572800      -1.55179166      -0.58105614       1.00230017
Fe       1.16808000       4.93779000       2.52478000      -0.28262200       0.22668300       0.83147000      -0.33311124       0.11282093       1.24147000
Fe       4.57564000       3.78620000       5.52286000       0.47796700       0.02734200      -0.30762900       0.53123189       0.33882293      -0.49759294
Fe       1.78348000       1.76727000       0.19912000      -0.26827800       0.03695300      -0.74819700      -0.52147401      -0.64521531      -0.63673731
Fe       4.14268000       1.27653000       5.44637000       0.32298300       0.47804900       0.87136900       0.31234690       0.37109550       0.68435784
Fe       0.39350000       2.02322000       2.40882000      -0.76609100       0.51871000      -0.97730800      -0.85827842       0.55062702      -0.82298966
Fe       4.81568000       2.96526000       1.14778000      -0.14924600       1.24611400       0.04356300      -0.16784377       0.63412480       0.02597620
Fe       3.84539000       0.30930000       3.37137000       0.29154400       0.59907800       0.00228600       0.44087811       0.18825176       0.06106185
B        0.56106000       0.29730000       1.37744000       0.44563300      -0.18325700       0.09294600       0.61528817      -0.18159220      -0.11027258
B        4.70692000       1.17670000       1.77222000       0.30524300      -0.18357100       0.58365200       0.35834292       0.11787711       0.46936534
B        5.38157000       1.57638000       3.57119000      -0.67590100      -0.19578700       0.11893400      -0.47771001      -0.18049025       0.30238955
Si       1.82718000       5.79703000       6.49835000       0.39538000       0.26005200      -0.26180200       0.35434568       0.53598797      -0.33721123
Si       3.31810000       4.97491000       2.09981000       0.38303800      -1.16180900      -0.78364900       0.33323322      -1.27945740      -0.56471323
Si       2.73378000       2.94839000       4.34012000       0.13193200      -0.11688600       0.72715900       0.35561175       0.03826982       0.60777916
18
Lattice="6.5 0.0 0.0 0.0 6.5 0.0 0.0 0.0 6.5" Properties=species:S:1:pos:R:3:REF_forces:R:3:MACE_forces:R:3 config_type=Fe12B3Si3 REF_energy=-121.02444435 MACE_energy=-125.65125636618018 pbc="T T T"
Fe       1.39149000       2.20308000       5.17931000      -1.09901500       0.96004600       0.36173300      -1.33639852       0.80147858       0.35608312
Fe       3.62747000       4.68659000       1.02510000      -0.06982100      -3.26377800      -2.89944800       0.11378835      -3.11172383      -2.90254035
Fe       1.80395000       3.40407000       2.57062000       0.23159400      -1.19456800      -0.45276000       0.55288251      -1.09089861      -0.15468993
Fe       2.94213000       0.60236000       5.71573000       0.15339300      -0.69866300       0.64874700       0.21658443      -0.76991436       0.84111671
Fe       5.38115000       2.52906000       6.43321000      -0.23682700       0.12156600      -0.19922500      -0.04330321       0.07036995      -0.27037741
Fe       0.12195000       6.11226000       5.45936000      -0.39712500       0.65309400      -0.05083800      -0.13857141       0.72265985      -0.01817466
Fe       4.34835000       1.98723000       2.40957000      -1.01480500       0.74572900      -0.29346500      -0.84910042       0.89985111      -0.12083934
Fe       1.53424000       4.10029000       0.18089000      -0.42864200       1.56111100      -0.02192200      -0.62851749       1.20369769      -0.20313625
Fe       0.31466000       0.53942000       1.14637000       0.10838100       1.15710500      -0.20059100      -0.00217953       0.96861896      -0.41398850
Fe       0.47952000       5.25453000       2.73419000      -0.30982000      -0.02579600      -0.14735200      -0.24644284      -0.07826178      -0.16694212
Fe       4.50027000       0.31801000       0.96733000       0.32284000      -0.13474100      -0.50344800       0.01451154      -0.28984326      -0.65011611
Fe       1.70353000       0.42976000       3.75274000      -0.32967600       0.43159600      -0.88117700       0.08838696       0.34853398      -1.07056073
B        6.18518000       4.55381000       4.41125000      -0.17318900      -1.03892600       0.51683300      -0.28031888      -0.84778845       0.20606236
B        2.12650000       0.37704000       1.77055000       1.33709500      -0.20335800      -0.64256200       1.37301580      -0.28653520      -0.40540935
B        0.73517000       2.44792000       0.79322000       0.36639400      -0.14615100       0.11805600       0.35918027      -0.04739904       0.38622267
Si       3.51439000       5.61877000       2.79115000      -0.45728700       1.49076800       4.26033400      -0.62309199       1.67215635       3.98459843
Si       4.26138000       4.96562000       5.31398000       0.76080200       0.01330700      -0.27175900       0.60040130       0.15979914      -0.14546403