54
Lattice="8.579999685 0.0 0.0 0.0 8.579999685 0.0 0.0 0.0 8.5799996" Properties=species:S:1:pos:R:3:REF_forces:R:3:MACE_forces:R:3 config_type=Fe34B10Si10 REF_energy=-352.89092233 MACE_energy=-353.2743031284877 pbc="T T T"
Fe       1.46495000       0.71583000       1.12880000       3.73230100      -3.41607500      -3.76209700       3.73071364      -3.47643844      -3.64015301
Fe       0.56244000       2.07917000       1.96452000      -3.31290700       4.06628900       2.54508600      -3.36207424       4.10072023       2.39484918
Fe       0.86636000       2.12990000       5.00906000     -10.85567700      -2.87102900      12.20968700     -10.91414234      -2.93213527      12.18512077
Fe       0.24697000       2.61233000       7.83061000      -0.37811800      -2.03816900      -0.08744800      -0.33648468      -2.08626655       0.11128428
Fe       0.35437000       4.66395000       8.16447000      -1.30300600       1.62250000       0.84662400      -1.36532053       1.71039172       0.81774219
Fe       0.83543000       8.00840000       3.01492000       5.54921000      -2.55787300       0.52513800       5.56270280      -2.64460538       0.44975921
Fe       2.03952000       7.84431000       6.63062000      -4.28706100       1.82495200      -1.68802900      -4.02248198       2.03781465      -1.69378727
Fe       3.34318000       0.11090000       2.96052000      -0.46571400      -0.35056300       0.37864800      -0.48153609      -0.18100643       0.48050479
Fe       3.26317000       2.11539000       1.48699000      -3.47884800      -0.03222100       0.61542300      -3.31465300      -0.27528951       0.21665189
Fe       4.14313000       2.75755000       3.31065000      -0.71378000      -2.73118300       1.93004800      -0.69053651      -2.46687493       1.89835355
Fe       2.55051000       2.67374000       7.19710000      -2.55215900      -0.93589000       1.77261600      -2.33217022      -1.03458363       1.70864898
Fe       3.61327000       2.86500000       5.46497000       1.55763200       0.20514300      -0.56676300       1.46035980       0.32791996      -0.27460108
Fe       2.62400000       4.72550000       1.39174000      -1.08585200      -1.19598700       0.59645400      -1.36601980      -0.93578307       0.70392050
Fe       2.20317000       5.21693000       3.87451000      -3.92870900      -4.38103900      -4.92199500      -3.83690127      -4.33375043      -4.99504082
Fe       3.93082000       4.37819000       8.08226000       1.07616800       0.44807800      -0.99700400       1.01222753       0.26369753      -1.05936593
Fe       2.44961000       7.01753000       1.08943000       0.32119000      -1.55635000       3.27006500       0.45277289      -1.63234189       3.33408212
Fe       3.02500000       6.15780000       5.08193000      -1.08486800       1.64126100       3.95415400      -0.42616171       1.57266014       3.90230906
Fe       5.77712000       0.44616000       0.16142000      -2.43333700       0.07175000       4.13474700      -2.41682914       0.43418310       4.19022942
Fe       5.66964000       0.14892000       2.95259000      -3.67617900       1.90971100       0.12919700      -3.69695122       1.66053784       0.28963936
Fe       5.39484000       2.66317000       1.55162000       4.08183700      -3.39937100       3.88213200       3.97405552      -3.75549638       4.10931697
Fe       5.91309000       3.40423000       8.31953000       8.90196200       5.48305700      -2.72562400       8.69325649       5.48384701      -2.75672570
Fe       4.96126000       4.63305000       3.41410000      -3.60269200      -2.00302700       2.25051900      -3.86592509      -2.26954485       2.39724580
Fe       5.11347000       6.81217000       1.78872000      -0.87770500       0.06714300      -1.61156800      -0.68584947       0.12030514      -1.59354805
Fe       5.00950000       6.45991000       8.24507000      -2.30619500      -0.19808200      -1.52355700      -2.20538863      -0.03360723      -1.69529901
Fe       4.64263000       7.71190000       5.75084000       2.50156800       4.23919200      -1.55456800       2.56527118       4.24638573      -1.63561251
Fe       7.32285000       0.33022000       5.03535000      -0.99210900      -0.59745100       4.73628300      -1.02377785      -0.38260085       4.73147171
Fe       6.75330000       1.32958000       7.05071000       0.53851300       2.01290400       0.36400700       0.48378718       1.87626503       0.33305576
Fe       6.82686000       2.53028000       3.66692000      -0.08907100      -0.12987400      -0.26318300       0.03128206      -0.19771667      -0.24323721
Fe       6.83617000       5.56618000       0.59386000       1.74434500       1.47371700      -3.32847200       1.81042505       1.83398394      -3.45652337
Fe       8.27091000       4.29855000       2.87718000       3.23308900       0.33980500       1.37352500       3.11628145       0.18711982       1.35645535
Fe       6.58774000       4.90718000       4.97515000      -1.87594500       0.58060600      -0.05143700      -2.06484113       0.53795262      -0.59449033
Fe       6.86773000       6.79187000       3.27473000       1.52763600      -2.76254700       0.67579100       1.46842069      -2.45706745       0.35329489
Fe       8.09083000       8.29691000       0.84396000      -4.18921500      -1.95965200       9.56442300      -4.27579508      -2.29639537       9.58303684
Fe       6.62133000       7.67903000       7.47205000      -3.65417600       1.51975600      -3.32990400      -3.96648855       1.31797072      -3.46981104
B        3.45077000       6.81738000       6.75435000       2.04131500      -2.79808300       3.80923700       1.91209436      -2.79609277       3.94865240
B        4.67436000       1.10514000       4.73414000       0.75036200       0.95391600      -0.52852700       0.81734698       0.89083555      -0.41533017
B        6.18153000       2.20088000       5.47737000      -4.49435700      -3.20609500      -2.27763700      -4.65226483      -3.16638906      -2.40661324
B        5.08133000       4.10197000       6.35983000       0.35152900       0.25548900      -0.65354500       0.51865770       0.36791902      -0.61027732
B        4.48663000       4.29393000       1.40792000      -0.27448100       1.04603100       0.21283300      -0.21811779       1.19200759       0.23706039
B        4.96286000       5.88068000       6.14703000       0.60492000      -1.85032800       0.29314600       0.49138057      -1.91470872       0.13710415
B        8.17242000       5.65216000       5.55863000       1.00443800       0.65677900      -0.69824300       1.01307262       0.78479901      -0.27375010
B        7.98743000       6.92663000       6.60530000       5.86774900       2.58695800      -4.05103700       5.76985322       2.30863507      -3.71845284
B        7.10769000       5.72812000       6.91109000      -2.33709700      -3.34606800       1.34633400      -2.11809402      -3.38602995       1.61377922
B        7.81665000       6.81498000       8.33858000       5.04350100      -2.41043400       0.97359300       5.07741452      -2.63599398       0.58662228
Si       0.06983000       0.14925000       7.74742000       4.12649000       2.60901100      -8.87608100       4.02284472       2.61029762      -8.76362219
Si       1.93337000       2.41223000       3.74634000      10.14534600       2.98113100     -12.18526000      10.23349691       3.06172117     -12.00208252
Si       0.75978000       6.02813000       1.69309000      -4.13401100      -0.74920300       1.02787300      -4.14022580      -0.83500331       0.97769248
Si       2.22023000       5.10313000       7.16329000      -1.58663400       1.19675500      -1.89967800      -1.64202065       1.15248089      -1.88508743
Si       3.27754000       8.17117000       8.35443000       4.04667900       4.58101600      -2.24829100       3.92620893       4.56899740      -2.39855194
Si       4.48145000       2.18337000       8.34202000      -5.72220500      -5.96162700      -4.99603400      -5.48729209      -5.94803918      -5.13152006
Si       6.36439000       4.54151000       2.12641000       2.28764700      -2.33178900       1.39384200       2.53122449      -2.12729582       1.32828382
Si       4.52267000       6.51460000       3.75633000       0.42177200       5.22743800       1.25328700       0.12040822       5.29585553       1.34498593
Si       7.68278000       0.22257000       3.11016000      -0.17295300       4.89916800      -3.86478000      -0.25974916       4.82769587      -3.94320178
Si       7.35363000       3.38410000       6.13231000       4.40786200       1.27045000       2.62604800       4.37253335       1.42805726       2.93553163
54
Lattice="8.579999685 0.0 0.0 0.0 8.579999685 0.0 0.0 0.0 8.5799996" Properties=species:S:1:pos:R:3:REF_forces:R:3:MACE_forces:R:3 config_type=Fe34B10Si10 REF_energy=-354.71875992 MACE_energy=-355.3542347728609 pbc="T T T"
Fe       0.43313000       1.19321000       2.96848000       1.47291300       2.99028000       0.61180900       1.45388365       2.91379350       0.33385378
Fe       0.91365000       1.12516000       8.09995000       2.76260400      -2.00335600       1.20968300       2.41078506      -1.94788143       1.06286305
Fe       1.17142000       2.67870000       5.23446000      -1.90323000       6.04651700       0.58026800      -1.73937695       6.12502722       0.40570774
Fe       0.60772000       3.85484000       0.87278000       2.66909500       4.89444800       4.53699300       2.56849639       5.02982778       4.18179447
Fe       1.41565000       3.44858000       3.01161000      -0.29549500       2.03729500      -0.74017400      -0.07161161       1.92589949      -0.66824898
Fe       0.04226000       2.91249000       8.09734000      -3.39897200      -2.84207300      -2.69442200      -2.79824397      -2.92831656      -2.40637035
Fe       1.33282000       7.09057000       5.22634000      -0.45239700      -1.35392500       0.92503500      -0.22831461      -1.50568181       0.96872783
Fe       2.06045000       7.92051000       0.98063000      -3.11321000      -0.30108300      -2.49280600      -3.19161228      -0.41445150      -2.44070257
Fe       2.03627000       8.24295000       3.50701000      -1.42216600       4.38122900       0.88517600      -1.49083242       4.11877838       0.64861405
Fe       0.01253000       8.02686000       7.00667000       2.58679700       0.98610200     -11.80201700       2.44439783       0.90259793     -11.86983566
Fe       3.00353000       0.57289000       6.13981000      -1.03922300       0.18357300       0.93137300      -0.78590762       0.11824657       1.01046741
Fe       3.69949000       2.65196000       7.51811000       2.76433000      -4.34399200      -3.80269000       2.59820739      -4.11080385      -3.66901673
Fe       2.94478000       6.44154000       3.03987000       7.21319500      -3.66655800      -1.17614100       7.00402006      -3.47085868      -1.01560141
Fe       2.94309000       5.75189000       6.64956000      -6.24071800      -0.74678300       3.86021800      -6.45043197      -0.63893865       3.90298431
Fe       3.71160000       8.39321000       1.86324000       2.24845700      -0.43546600       0.28887200       2.26160905      -0.14755245       0.69008209
Fe       4.07810000       8.43915000       4.32840000       2.88035800       1.28304800      -0.49181300       2.85648866       1.34979697      -0.75671909
Fe       5.57499000       0.73262000       6.31633000      -3.12774100      -1.68249800      -0.98058200      -2.82904576      -1.68980049      -0.91736480
Fe       4.70712000       1.94493000       1.65492000      -2.04675700       4.97917500      -3.67899600      -2.15066447       4.77079997      -3.44769996
Fe       4.73401000       4.18392000       1.24748000       0.71501700       1.80608500      -0.06999200       0.71765877       2.01936307      -0.10729104
Fe       4.56687000       4.22266000       4.39618000       0.73801700       3.32591500      -2.10569900       0.51634974       3.16255881      -2.18565420
Fe       4.51224000       4.61167000       7.05684000       2.53211900      -0.41024200       0.53825400       2.97138019      -0.75507490       0.48463403
Fe       6.32808000       6.81945000       4.24288000      -3.20445400      -0.33519400      -1.28892300      -2.79117688      -0.24115642      -1.09492128
Fe       6.22240000       7.17309000       0.16230000      -3.30904600      -2.75215800       1.90373500      -3.51637594      -3.01142057       2.07120904
Fe       4.54224000       7.44382000       7.03838000       0.17895600      -5.02037800      -8.74618400       0.28553031      -5.24127185      -8.89402998
Fe       4.73272000       8.55832000       8.35561000      -0.10588400       8.96287400       6.54083400      -0.22640249       9.42361122       6.19717909
Fe       7.67285000       2.82429000       2.17742000      -2.12886900      -0.76272600      -2.06587500      -2.07667725      -0.82910404      -1.98243288
Fe       6.74071000       1.77406000       4.33655000       0.47479500       0.50025500      -0.42349800       0.07828710       0.43402099      -0.46674619
Fe       7.16362000       1.61896000       6.68131000       5.11373900       1.83737400       0.70818800       4.75328996       1.66643538       0.64233816
Fe       6.73653000       4.13840000       7.84564000       0.19062300       0.32905600       3.59274800       0.13542607       0.48827387       3.62977544
Fe       6.61248000       5.35948000       2.44590000       0.96755600      -0.77403900      -0.47053600       0.84380193      -0.66651888      -0.49536561
Fe       8.39074000       4.95678000       4.82580000       0.50677700       3.21370700       1.22596300       0.61100283       3.11287525       1.08814242
Fe       6.62275000       6.29700000       6.29237000       0.91106900      -0.58785400       1.74696000       0.81057725      -0.47642751       1.60604925
Fe       8.00875000       8.14674000       2.12563000      -1.25903800      -1.94608200      -3.37077000      -0.87905937      -1.94533814      -3.40045201
Fe       7.96861000       8.10559000       4.08816000       1.24434400       0.03207600       4.40361200       0.70488654       0.01892964       4.52020309
B        3.14587000       1.61638000       2.59818000      -3.96044800      -1.57388800      -2.24367700      -3.97267100      -1.49509714      -2.04521697
B        4.07212000       1.93087000       3.78701000       0.55534200       0.12762300      -3.25123200       0.44449903       0.15513822      -3.18465997
B        2.24412000       1.90783000       4.05913000      -1.80380000      -9.70850100      -5.48536600      -1.85005720      -9.94927082      -5.59643367
B        2.90130000       3.06657000       4.45062000       2.48509300       7.60479000      -1.50334300       2.89787521       7.29071042      -1.53124933
B        2.82587000       3.80138000       5.80651000       0.21675600       2.27927400       3.92227300       0.31558800       2.12928260       3.87649232
B        2.60929000       5.04297000       1.66311000       0.12617300      -0.77075900      -0.46531300      -0.05636534      -0.77424968      -0.40660830
B        2.47198000       4.95014000       4.32601000      -0.76752800      -1.31946700       0.35153300      -0.81588559      -1.21111994       0.36088625
B        2.73354000       7.81887000       7.66829000      -1.47869400      -0.15377200       0.00458000      -1.52190633      -0.17180640       0.19638514
B        5.68071000       2.28134000       7.79544000      -0.95924500       0.41857400       1.11780500      -0.94402913       0.34685669       1.05353259
B        7.77536000       3.70665000       3.76574000      -0.44877700      -1.48394500      -0.38974400      -0.55312758      -1.39537615      -0.04766573
Si       0.79518000       0.92195000       5.77957000      -1.66645900      -4.94136200      -1.10925300      -1.62085873      -5.08263150      -0.94745881
Si       0.88055000       4.20706000       6.73551000       1.15626000       3.58432200      -0.32349000       1.10505855       3.75616324      -0.21909022
Si       1.15025000       6.44729000       2.43826000      -7.77651300      -1.83655100      -1.54918700      -7.88447087      -1.71839371      -1.71190839
Si       2.82820000       3.29548000       0.50208000      -4.05499500       1.58525200       5.32597100      -4.11542630       1.45880410       5.25598469
Si       4.14031000       6.38272000       0.30005000      -2.16949800      -2.44928300       2.57761000      -2.23523410      -2.47335589       2.53772289
Si       3.68345000       6.43010000       5.01209000       3.98893100       0.98565200      -2.13453700       3.84235068       1.17190358      -2.08394454
Si       5.73751000       0.59059000       2.53265000       5.08228400      -4.90021500       2.23852200       5.12310189      -4.89971087       2.49172868
Si       4.51163000       2.47994000       5.36819000       2.60737700      -2.86786400       7.12589500       2.76840100      -2.67489171       7.01026931
Si       6.43436000       3.75222000       5.86206000       1.38008400       0.66155200      -3.64612400       1.56576095       0.77258633      -3.75310261
Si       8.06432000       7.52318000       8.55473000       2.36409700      -3.06603600      11.34847700       2.70705164      -2.79577965      11.11816422
18
Lattice="6.5 0.0 0.0 0.0 6.5 0.0 0.0 0.0 6.5" Properties=species:S:1:pos:R:3:REF_forces:R:3:MACE_forces:R:3 config_type=Fe12B3Si3 REF_energy=-113.87843945 MACE_energy=-113.05255390106393 pbc="T T T"
Fe       5.40234000       5.43492000       1.53729000      -1.39532100       2.04028400       0.71142300      -1.07265434       1.91177485       0.69599391
Fe       2.09750000       2.10361000       0.54730000       2.35673700      -0.33103000       1.27254800       2.51157107      -0.07481665       1.16735429
Fe       2.84360000       1.73250000       3.81271000       2.28004000      -1.18251600      -0.27344700       2.18308814      -0.99369368      -0.18422986
Fe       0.77541000       4.93717000       1.04317000       1.56096300      -3.83372900       1.76362000       1.34678066      -3.51914229       1.50402246
Fe       0.07665000       3.70431000       3.74351000      -0.75952900      -0.39175400      -2.23189700      -1.08307829      -0.46142087      -2.28516790
Fe       4.77171000       3.58949000       4.78220000      -1.99219600      -4.62409700       0.48420500      -1.73584884      -4.54350016       0.40494797
Fe       4.12430000       1.49867000       1.46476000       0.29771700      -2.38794700       0.28396300       0.31399612      -2.64784053       0.10420481
Fe       0.95387000       5.17746000       5.28728000      -0.57085000      -0.50160400      -1.80733600      -0.95108723      -0.70745049      -1.30801199
Fe       1.93602000       3.09888000       2.36598000      -0.08855100       0.43128300      -0.27209000      -0.18230648       0.57512112      -0.45554435
Fe       5.69037000       1.28357000       4.20026000      -0.40866000      -0.49067900       0.18976600      -0.74329138      -0.27553278       0.23483181
Fe       1.94321000       2.86141000       5.39871000      -0.55906500       0.73218900      -1.80086600      -0.54520640       0.74364771      -1.88777671
Fe       4.33122000       5.38124000       5.25469000      -0.73272900       4.56545400       1.52017900      -0.63891946       4.35596522       1.53125636
B        0.37598000       1.64060000       1.21420000      -3.21263000       2.85095800       0.76078000      -3.05253668       2.71787031       0.88586168
B        1.88110000       4.04794000       3.96741000       2.48956600       2.45119300      -0.32261600       2.68833666       2.33298343      -0.32320836
B        3.63878000       0.94242000       5.41981000      -0.01444500       0.67937600       0.95779200       0.15749715       0.82866379       1.09404321
Si       1.19380000       0.26963000       0.19686000       0.54051800       0.24528300      -1.93219100       0.67593224      -0.01321923      -1.90107714
Si       4.57825000       3.47658000       1.16117000       0.15934200       1.26766700      -0.81102600       0.19297004       1.44436814      -0.74205896
Si       1.09558000       0.76720000       2.75124000       0.04909300      -1.52033200       1.50719200      -0.06524297      -1.67377789       1.46455877
54
Lattice="8.579999685 0.0 0.0 0.0 8.579999685 0.0 0.0 0.0 8.5799996" Properties=species:S:1:pos:R:3:REF_forces:R:3:MACE_forces:R:3 config_type=Fe34B10Si10 REF_energy=-356.0869274 MACE_energy=-356.91563209602333 pbc="T T T"
Fe       0.92877000       1.08311000       2.12831000      -0.53214900      -1.15432400       0.53007800      -0.68738764      -1.22382171       0.41819305
Fe       1.12794000       0.45096000       7.37327000      -2.86345100       2.18226700       1.45805300      -2.85773587       1.99577079       1.46399453
Fe       0.91289000       3.61082000       1.96264000      -1.66570100       0.50807500      -4.76654600      -1.66078894       0.30896051      -4.77699982
Fe       0.97242000       3.25012000       3.83975000      -0.85629000      -1.23507100      -0.91491200      -1.06934129      -1.20580334      -0.30735375
Fe       1.43574000       3.84332000       5.84621000      -1.94378300      -0.72872400       4.94145300      -2.07301476      -0.55355336       4.66951690
Fe       0.45897000       5.99881000       1.32384000       1.86679900       1.45939200      -0.33976700       1.64387078       1.57807831      -0.16337729
Fe       0.05714000       6.25044000       6.01250000       0.66851500      -0.88142700       1.67028200       0.73903676      -0.76264475       1.77327643
Fe       1.87526000       7.05991000       7.27744000      -5.90957000       6.81146600       5.95768600      -5.75812367       7.19893259       5.94919115
Fe       4.21220000       0.80536000       3.81626000       0.44958900      -1.97725700       0.54591300       0.54386266      -1.91037668       0.45099666
Fe       2.64196000       0.75311000       5.88605000       0.80305000      -0.92688600      -1.50973400       0.57738275      -1.08147573      -1.57894969
Fe       2.51735000       4.27963000       7.86001000      -0.17185400       2.88247300       0.00075600       0.00870093       2.96355788       0.30386646
Fe       2.46175000       4.76211000       4.38544000       2.27245000       6.36429500      -0.60000700       2.20692718       6.32433086      -0.59214115
Fe       3.99132000       4.46692000       6.09268000      -0.21521200      -1.96607600      -0.25853400      -0.20861561      -2.16869826      -0.17581539
Fe       4.03283000       6.20484000       2.50717000       0.32509400      -1.83048700       1.07686200       0.42815309      -1.74863318       1.14528957
Fe       2.62183000       8.12097000       1.25125000      -5.45108600      -1.04608100      -0.88869000      -5.54080371      -1.06493607      -0.58881416
Fe       2.34208000       7.49949000       3.33705000      -1.45221900       0.10179900       1.96325000      -1.24952403       0.21121378       1.59712778
Fe       4.67554000       0.98699000       8.35162000       1.97529500       0.95938300       0.07305200       1.70945756       0.80322378       0.38830821
Fe       4.68615000       2.28426000       1.60336000       6.03713100       4.39249100       1.56082500       6.19771425       4.34696936       1.16701709
Fe       4.95897000       4.28949000       0.91503000       1.24258400       3.77490300      -1.07876200       0.70829820       3.48205131      -1.25366847
Fe       5.62605000       3.84953000       3.25301000      -4.56775200       3.43217100       2.09526400      -4.58902368       3.50505651       1.91446322
Fe       5.63153000       5.70233000       4.67966000       0.04558900       0.36352900      -0.74034800       0.04880360      -0.06024846      -0.59778294
Fe       5.00954000       6.14620000       6.89198000       4.51113600      -2.60361300       1.43664400       4.55084527      -2.39413131       1.39589750
Fe       5.34723000       7.32984000       0.56425000       3.41130600      -7.55812200      -7.44238600       3.35483774      -7.00849116      -7.21645915
Fe       4.57141000       8.20633000       1.67615000      -2.51651100       6.57056000       9.11650700      -2.62203765       6.12152026       8.66435110
Fe       5.67084000       7.83697000       6.02451000      -0.02983000       3.57151200       0.33120700      -0.09627217       3.67821456       0.39426581
Fe       7.65837000       1.05332000       0.64336000       1.95813700       2.93603900      -3.62028800       1.88411145       2.96446610      -3.51509708
Fe       7.23579000       1.49494000       3.62009000       0.88838800      -1.50203300       3.00240400       0.96553122      -1.58417893       3.05993803
Fe       6.96409000       1.59543000       6.70415000       0.40175100      -2.57633900      -0.54943900       0.52209299      -2.53592648      -0.52255418
Fe       6.97946000       3.05325000       2.27831000       3.01329100      -2.85779700      -7.80747400       2.46242725      -2.95517073      -7.22646629
Fe       7.05854000       3.62734000       7.13255000       0.94483300       2.42104600       2.56329500       1.03098763       2.45554696       2.48638824
Fe       7.47490000       4.49325000       0.92243000      -3.13561000       0.06366500       0.11142200      -2.91545306       0.43022729      -0.30600148
Fe       7.76499000       5.40883000       4.05655000       3.42051700      -2.49950500       1.10150300       3.50638157      -2.66975404       1.13217026
Fe       6.91686000       6.16423000       2.38917000      -4.34160700       0.52717700      -3.24358900      -4.30923347       0.63797084      -3.18483872
Fe       7.31773000       7.39473000       4.73130000      -1.41907300       3.06948200       1.38572900      -1.42725222       3.07110656       1.34163285
B        1.63947000       5.44017000       2.85377000      -1.37965300       1.67099600      -0.34434500      -1.47871745       1.77623562      -0.61931750
B        3.47444000       1.29905000       1.69513000      -6.04542900      -7.46227000      -1.52467000      -5.89525452      -7.24270310      -1.18106616
B        2.31673000       1.42955000       3.77944000      -1.85652800      -2.14982900       3.21956500      -1.75488329      -1.98218325       3.47894310
B        3.17088000       0.01260000       8.16689000      -2.14308300      -0.12737100      -3.63430700      -2.04004891       0.10137767      -3.59009048
B        2.48887000       2.23189000       2.44876000      -1.30373000       3.96631200      -0.94871100      -0.88542128       3.87724372      -1.27385661
B        3.55016000       3.21990000       0.17024000       2.13469500      -3.52588700       0.23974700       2.16551240      -3.43606720       0.25146641
B        3.12966000       3.07291000       4.24572000      -6.99085300       0.34377600      -0.16579100      -7.16715251       0.10426724      -0.27152760
B        2.38358000       5.95301000       6.34325000       2.25901800      -8.76611800      -6.31465800       2.22997399      -9.20898942      -6.55676097
B        4.46260000       2.62992000       4.23823000       7.08507900      -1.75449200       0.40993300       7.22947389      -1.76969313       0.45986740
B        7.51183000       3.59374000       3.85724000       1.49621300      -1.20378300       3.39561400       1.51756082      -1.10436856       3.27562141
Si       0.50050000       1.66927000       5.10425000      -1.02554400      -2.67263500       2.61432900      -0.82667965      -2.91829914       2.53999454
Si       0.41923000       4.50138000       8.15701000       0.82744200      -0.47721100      -2.57541600       1.05987612      -0.45279956      -2.80221687
Si       2.90131000       4.25049000       1.93860000       2.71957100       0.04497600      -0.88170100       2.91904379      -0.04427147      -1.10715316
Si       3.74353000       6.85388000       5.19884000      -1.20766000       1.80214700      -2.20114300      -1.08143631       1.99414105      -2.18295417
Si       3.54209000       6.47938000       8.21357000      -0.45014500      -1.75854100       4.24377300      -0.55575965      -2.00612454       4.43823663
Si       4.55252000       1.74669000       6.40118000       0.28733400       0.20348600      -1.69136000       0.28193313       0.17843795      -1.68789901
Si       5.87020000       3.30923000       5.41310000       1.93974000       0.55942400      -1.14043100       1.57603217       0.73164498      -1.12906545
Si       6.68392000       0.09389000       2.07850000      -2.78148600      -1.30329400       2.70552900      -2.47520688      -1.22247746       2.83141766
Si       7.30980000       7.36953000       0.08595000       4.18267400      -0.22507900      -1.67891000       4.12211549      -0.51423815      -1.67862514
Si       8.41387000       7.50606000       2.97540000       5.08859000       1.78741200      -0.88875800       5.03422355       1.98951269      -0.90457930
54
Lattice="8.579999685 0.0 0.0 0.0 8.579999685 0.0 0.0 0.0 8.5799996" Properties=species:S:1:pos:R:3:REF_forces:R:3:MACE_forces:R:3 config_type=Fe34B10Si10 REF_energy=-359.84864784 MACE_energy=-360.3041782882148 pbc="T T T"
Fe       0.39531000       2.37288000       0.87042000       3.27925500       2.43832800      -1.60261100       3.20562381       2.64709542      -1.76373520
Fe       0.75383000       1.65209000       3.11094000       1.30783500      -0.34615400      -0.09267000       1.27640589      -0.81144392       0.18485093
Fe       1.33201000       3.79282000       7.26231000      -2.40668100      -1.18131200       0.32245500      -2.52001111      -1.06575285       0.20887403
Fe       0.64436000       4.41396000       2.97573000       2.42004200      -2.26182600       0.38963900       2.47785202      -2.07872659       0.23255116
Fe       0.14751000       6.42079000       3.51005000      -3.07002100       1.32407200      -2.30638400      -3.11730084       1.36336911      -2.50095932