54
Lattice="8.579999685 0.0 0.0 0.0 8.579999685 0.0 0.0 0.0 8.5799996" Properties=species:S:1:pos:R:3:REF_forces:R:3:MACE_forces:R:3 config_type=Fe34B10Si10 REF_energy=-352.89092233 MACE_energy=-352.8219360887036 pbc="T T T"
Fe       1.46495000       0.71583000       1.12880000       3.73230100      -3.41607500      -3.76209700       3.55779768      -3.41830993      -3.41320562
Fe       0.56244000       2.07917000       1.96452000      -3.31290700       4.06628900       2.54508600      -3.33748747       4.04144438       2.31808613
Fe       0.86636000       2.12990000       5.00906000     -10.85567700      -2.87102900      12.20968700     -10.88098525      -2.92252622      12.16848572
Fe       0.24697000       2.61233000       7.83061000      -0.37811800      -2.03816900      -0.08744800      -0.36095637      -2.01673162       0.06011263
Fe       0.35437000       4.66395000       8.16447000      -1.30300600       1.62250000       0.84662400      -1.36174550       1.76687306       0.75124624
Fe       0.83543000       8.00840000       3.01492000       5.54921000      -2.55787300       0.52513800       5.64951185      -2.61498638       0.47826673
Fe       2.03952000       7.84431000       6.63062000      -4.28706100       1.82495200      -1.68802900      -4.09887853       1.99676356      -1.78650509
Fe       3.34318000       0.11090000       2.96052000      -0.46571400      -0.35056300       0.37864800      -0.48737495      -0.16626181       0.47000307
Fe       3.26317000       2.11539000       1.48699000      -3.47884800      -0.03222100       0.61542300      -3.35047283      -0.24733957       0.25916797
Fe       4.14313000       2.75755000       3.31065000      -0.71378000      -2.73118300       1.93004800      -0.63817172      -2.45881193       1.87070603
Fe       2.55051000       2.67374000       7.19710000      -2.55215900      -0.93589000       1.77261600      -2.19105256      -1.01362676       1.66956269
Fe       3.61327000       2.86500000       5.46497000       1.55763200       0.20514300      -0.56676300       1.44489046       0.28221106      -0.26313753
Fe       2.62400000       4.72550000       1.39174000      -1.08585200      -1.19598700       0.59645400      -1.32176868      -1.02052280       0.66743446
Fe       2.20317000       5.21693000       3.87451000      -3.92870900      -4.38103900      -4.92199500      -3.98141770      -4.41588592      -5.17980192
Fe       3.93082000       4.37819000       8.08226000       1.07616800       0.44807800      -0.99700400       0.89204352       0.20057138      -0.99803544
Fe       2.44961000       7.01753000       1.08943000       0.32119000      -1.55635000       3.27006500       0.42516007      -1.55781298       3.35894227
Fe       3.02500000       6.15780000       5.08193000      -1.08486800       1.64126100       3.95415400      -0.14193491       1.95906480       4.28474684
Fe       5.77712000       0.44616000       0.16142000      -2.43333700       0.07175000       4.13474700      -2.38398739       0.40899689       4.18093660
Fe       5.66964000       0.14892000       2.95259000      -3.67617900       1.90971100       0.12919700      -3.67513748       1.63673093       0.34546690
Fe       5.39484000       2.66317000       1.55162000       4.08183700      -3.39937100       3.88213200       4.01537050      -3.74792777       4.20820247
Fe       5.91309000       3.40423000       8.31953000       8.90196200       5.48305700      -2.72562400       8.76992587       5.37150408      -2.77532724
Fe       4.96126000       4.63305000       3.41410000      -3.60269200      -2.00302700       2.25051900      -3.83830182      -2.38617892       2.45211382
Fe       5.11347000       6.81217000       1.78872000      -0.87770500       0.06714300      -1.61156800      -0.75371339       0.15930693      -1.70039010
Fe       5.00950000       6.45991000       8.24507000      -2.30619500      -0.19808200      -1.52355700      -2.20146195       0.00754740      -1.84533771
Fe       4.64263000       7.71190000       5.75084000       2.50156800       4.23919200      -1.55456800       2.55210075       4.28625452      -1.65190219
Fe       7.32285000       0.33022000       5.03535000      -0.99210900      -0.59745100       4.73628300      -0.91405723      -0.34243006       4.67683021
Fe       6.75330000       1.32958000       7.05071000       0.53851300       2.01290400       0.36400700       0.50794669       1.85021134       0.33604575
Fe       6.82686000       2.53028000       3.66692000      -0.08907100      -0.12987400      -0.26318300       0.00518993      -0.17756496      -0.19570359
Fe       6.83617000       5.56618000       0.59386000       1.74434500       1.47371700      -3.32847200       1.74925535       1.69761515      -3.46044445
Fe       8.27091000       4.29855000       2.87718000       3.23308900       0.33980500       1.37352500       3.06635609       0.16107275       1.33717864
Fe       6.58774000       4.90718000       4.97515000      -1.87594500       0.58060600      -0.05143700      -2.00252043       0.61298266      -0.44656533
Fe       6.86773000       6.79187000       3.27473000       1.52763600      -2.76254700       0.67579100       1.45152300      -2.41989778       0.36289515
Fe       8.09083000       8.29691000       0.84396000      -4.18921500      -1.95965200       9.56442300      -4.10639244      -2.16370316       9.65249958
Fe       6.62133000       7.67903000       7.47205000      -3.65417600       1.51975600      -3.32990400      -4.11453777       1.27535449      -3.48373223
B        3.45077000       6.81738000       6.75435000       2.04131500      -2.79808300       3.80923700       1.94303392      -2.95650863       3.89273304
B        4.67436000       1.10514000       4.73414000       0.75036200       0.95391600      -0.52852700       0.78967731       1.00351891      -0.41506889
B        6.18153000       2.20088000       5.47737000      -4.49435700      -3.20609500      -2.27763700      -4.64338332      -3.15796991      -2.52452037
B        5.08133000       4.10197000       6.35983000       0.35152900       0.25548900      -0.65354500       0.47294343       0.20283514      -0.56145778
B        4.48663000       4.29393000       1.40792000      -0.27448100       1.04603100       0.21283300      -0.24373265       1.26746097       0.20763711
B        4.96286000       5.88068000       6.14703000       0.60492000      -1.85032800       0.29314600       0.41167994      -1.81407650       0.13268381
B        8.17242000       5.65216000       5.55863000       1.00443800       0.65677900      -0.69824300       1.04992204       0.55899457      -0.24530027
B        7.98743000       6.92663000       6.60530000       5.86774900       2.58695800      -4.05103700       5.77799447       2.34803946      -3.35858773
B        7.10769000       5.72812000       6.91109000      -2.33709700      -3.34606800       1.34633400      -2.13277068      -3.44013201       1.45387609
B        7.81665000       6.81498000       8.33858000       5.04350100      -2.41043400       0.97359300       4.96492535      -2.55450894       0.40337469
Si       0.06983000       0.14925000       7.74742000       4.12649000       2.60901100      -8.87608100       3.91472764       2.49218817      -8.78825903
Si       1.93337000       2.41223000       3.74634000      10.14534600       2.98113100     -12.18526000      10.14422513       3.01124994     -11.95874356
Si       0.75978000       6.02813000       1.69309000      -4.13401100      -0.74920300       1.02787300      -4.11690502      -0.88513047       0.91702570
Si       2.22023000       5.10313000       7.16329000      -1.58663400       1.19675500      -1.89967800      -1.63640486       1.18813041      -1.86820616
Si       3.27754000       8.17117000       8.35443000       4.04667900       4.58101600      -2.24829100       3.87393484       4.46281395      -2.34543650
Si       4.48145000       2.18337000       8.34202000      -5.72220500      -5.96162700      -4.99603400      -5.45864026      -5.83625264      -5.21100667
Si       6.36439000       4.54151000       2.12641000       2.28764700      -2.33178900       1.39384200       2.60549800      -2.17445627       1.18458040
Si       4.52267000       6.51460000       3.75633000       0.42177200       5.22743800       1.25328700       0.12175656       5.32983300       1.36645501
Si       7.68278000       0.22257000       3.11016000      -0.17295300       4.89916800      -3.86478000      -0.18501954       4.87207878      -3.96509531
Si       7.35363000       3.38410000       6.13231000       4.40786200       1.27045000       2.62604800       4.40182230       1.45790524       2.97447498
54
Lattice="8.579999685 0.0 0.0 0.0 8.579999685 0.0 0.0 0.0 8.5799996" Properties=species:S:1:pos:R:3:REF_forces:R:3:MACE_forces:R:3 config_type=Fe34B10Si10 REF_energy=-354.71875992 MACE_energy=-354.8418597228118 pbc="T T T"
Fe       0.43313000       1.19321000       2.96848000       1.47291300       2.99028000       0.61180900       1.53434740       2.91576497       0.42272856
Fe       0.91365000       1.12516000       8.09995000       2.76260400      -2.00335600       1.20968300       2.41559265      -1.73026813       1.17520692
Fe       1.17142000       2.67870000       5.23446000      -1.90323000       6.04651700       0.58026800      -1.63032319       6.10789171       0.34684231
Fe       0.60772000       3.85484000       0.87278000       2.66909500       4.89444800       4.53699300       2.70716238       5.08488035       4.13357237
Fe       1.41565000       3.44858000       3.01161000      -0.29549500       2.03729500      -0.74017400      -0.02199203       1.95892812      -0.75348974
Fe       0.04226000       2.91249000       8.09734000      -3.39897200      -2.84207300      -2.69442200      -2.84501243      -2.99353568      -2.53707075
Fe       1.33282000       7.09057000       5.22634000      -0.45239700      -1.35392500       0.92503500      -0.21513884      -1.43435540       0.92257774
Fe       2.06045000       7.92051000       0.98063000      -3.11321000      -0.30108300      -2.49280600      -3.28402964      -0.43611923      -2.55851163
Fe       2.03627000       8.24295000       3.50701000      -1.42216600       4.38122900       0.88517600      -1.55159799       4.09389227       0.63512141
Fe       0.01253000       8.02686000       7.00667000       2.58679700       0.98610200     -11.80201700       2.49602556       0.85607326     -12.15301563
Fe       3.00353000       0.57289000       6.13981000      -1.03922300       0.18357300       0.93137300      -0.77101314       0.16667180       0.98068614
Fe       3.69949000       2.65196000       7.51811000       2.76433000      -4.34399200      -3.80269000       2.58418395      -4.14472019      -3.75945366
Fe       2.94478000       6.44154000       3.03987000       7.21319500      -3.66655800      -1.17614100       7.00542431      -3.42191448      -1.01289738
Fe       2.94309000       5.75189000       6.64956000      -6.24071800      -0.74678300       3.86021800      -6.43662565      -0.67986400       4.04446666
Fe       3.71160000       8.39321000       1.86324000       2.24845700      -0.43546600       0.28887200       2.47845740      -0.05420963       0.70106434
Fe       4.07810000       8.43915000       4.32840000       2.88035800       1.28304800      -0.49181300       2.85391863       1.28485761      -0.83672939
Fe       5.57499000       0.73262000       6.31633000      -3.12774100      -1.68249800      -0.98058200      -2.75742047      -1.77718545      -0.94405304
Fe       4.70712000       1.94493000       1.65492000      -2.04675700       4.97917500      -3.67899600      -2.08605965       4.68168573      -3.43328933
Fe       4.73401000       4.18392000       1.24748000       0.71501700       1.80608500      -0.06999200       0.70354434       1.96659757      -0.14559603
Fe       4.56687000       4.22266000       4.39618000       0.73801700       3.32591500      -2.10569900       0.45250289       3.19896372      -2.07670617
Fe       4.51224000       4.61167000       7.05684000       2.53211900      -0.41024200       0.53825400       2.93747077      -0.66254205       0.48639909
Fe       6.32808000       6.81945000       4.24288000      -3.20445400      -0.33519400      -1.28892300      -2.75739266      -0.22941139      -1.09525305
Fe       6.22240000       7.17309000       0.16230000      -3.30904600      -2.75215800       1.90373500      -3.41508230      -2.96718559       2.01981702
Fe       4.54224000       7.44382000       7.03838000       0.17895600      -5.02037800      -8.74618400       0.35470746      -5.25796500      -8.85318878
Fe       4.73272000       8.55832000       8.35561000      -0.10588400       8.96287400       6.54083400      -0.42681361       9.26517687       6.13254502
Fe       7.67285000       2.82429000       2.17742000      -2.12886900      -0.76272600      -2.06587500      -2.14793978      -0.77859269      -1.93879985
Fe       6.74071000       1.77406000       4.33655000       0.47479500       0.50025500      -0.42349800       0.04865129       0.38754257      -0.41843023
Fe       7.16362000       1.61896000       6.68131000       5.11373900       1.83737400       0.70818800       4.66994415       1.55803939       0.61563063
Fe       6.73653000       4.13840000       7.84564000       0.19062300       0.32905600       3.59274800       0.17064332       0.44985368       3.55376461
Fe       6.61248000       5.35948000       2.44590000       0.96755600      -0.77403900      -0.47053600       0.87811993      -0.67320122      -0.38499700
Fe       8.39074000       4.95678000       4.82580000       0.50677700       3.21370700       1.22596300       0.51138119       3.17116097       1.10746639
Fe       6.62275000       6.29700000       6.29237000       0.91106900      -0.58785400       1.74696000       0.83108324      -0.50390501       1.58829730
Fe       8.00875000       8.14674000       2.12563000      -1.25903800      -1.94608200      -3.37077000      -0.90577150      -1.81184481      -3.42350554
Fe       7.96861000       8.10559000       4.08816000       1.24434400       0.03207600       4.40361200       0.71494903      -0.00544628       4.59839688
B        3.14587000       1.61638000       2.59818000      -3.96044800      -1.57388800      -2.24367700      -3.97080544      -1.45409195      -1.99657409
B        4.07212000       1.93087000       3.78701000       0.55534200       0.12762300      -3.25123200       0.34521265       0.09120754      -3.28217092
B        2.24412000       1.90783000       4.05913000      -1.80380000      -9.70850100      -5.48536600      -1.90106252     -10.14839582      -5.58579568
B        2.90130000       3.06657000       4.45062000       2.48509300       7.60479000      -1.50334300       2.88054714       7.28565003      -1.49040576
B        2.82587000       3.80138000       5.80651000       0.21675600       2.27927400       3.92227300       0.21036291       2.29872158       4.03892876
B        2.60929000       5.04297000       1.66311000       0.12617300      -0.77075900      -0.46531300       0.01594410      -0.86172458      -0.46896946
B        2.47198000       4.95014000       4.32601000      -0.76752800      -1.31946700       0.35153300      -0.78505023      -1.20650308       0.50729148
B        2.73354000       7.81887000       7.66829000      -1.47869400      -0.15377200       0.00458000      -1.56791872      -0.15742860       0.23757898
B        5.68071000       2.28134000       7.79544000      -0.95924500       0.41857400       1.11780500      -0.97926212       0.42024205       1.11372384
B        7.77536000       3.70665000       3.76574000      -0.44877700      -1.48394500      -0.38974400      -0.52057975      -1.45704839      -0.09998953
Si       0.79518000       0.92195000       5.77957000      -1.66645900      -4.94136200      -1.10925300      -1.65949267      -4.95030699      -0.98878993
Si       0.88055000       4.20706000       6.73551000       1.15626000       3.58432200      -0.32349000       1.09659961       3.61815037      -0.22621000
Si       1.15025000       6.44729000       2.43826000      -7.77651300      -1.83655100      -1.54918700      -7.75296476      -1.75739959      -1.69815923
Si       2.82820000       3.29548000       0.50208000      -4.05499500       1.58525200       5.32597100      -4.03420314       1.32878043       5.24661626
Si       4.14031000       6.38272000       0.30005000      -2.16949800      -2.44928300       2.57761000      -2.36326583      -2.36318983       2.41746611
Si       3.68345000       6.43010000       5.01209000       3.98893100       0.98565200      -2.13453700       3.86444588       1.17897527      -2.20119788
Si       5.73751000       0.59059000       2.53265000       5.08228400      -4.90021500       2.23852200       5.09127098      -4.81119042       2.53350817
Si       4.51163000       2.47994000       5.36819000       2.60737700      -2.86786400       7.12589500       2.80707276      -2.55096815       7.11307830
Si       6.43436000       3.75222000       5.86206000       1.38008400       0.66155200      -3.64612400       1.50027600       0.68174741      -3.67926921
Si       8.06432000       7.52318000       8.55473000       2.36409700      -3.06603600      11.34847700       2.62697614      -2.77094163      11.36974359
18
Lattice="6.5 0.0 0.0 0.0 6.5 0.0 0.0 0.0 6.5" Properties=species:S:1:pos:R:3:REF_forces:R:3:MACE_forces:R:3 config_type=Fe12B3Si3 REF_energy=-113.87843945 MACE_energy=-112.87358837283591 pbc="T T T"
Fe       5.40234000       5.43492000       1.53729000      -1.39532100       2.04028400       0.71142300      -1.05239459       1.82573769       0.69974499
Fe       2.09750000       2.10361000       0.54730000       2.35673700      -0.33103000       1.27254800       2.58733971      -0.21518372       1.51883038
Fe       2.84360000       1.73250000       3.81271000       2.28004000      -1.18251600      -0.27344700       2.31523910      -1.05424637      -0.16831095
Fe       0.77541000       4.93717000       1.04317000       1.56096300      -3.83372900       1.76362000       1.18685455      -3.38050558       1.66245703
Fe       0.07665000       3.70431000       3.74351000      -0.75952900      -0.39175400      -2.23189700      -1.30621984      -0.47938707      -2.23139187
Fe       4.77171000       3.58949000       4.78220000      -1.99219600      -4.62409700       0.48420500      -1.60734465      -4.53099205       0.38865993
Fe       4.12430000       1.49867000       1.46476000       0.29771700      -2.38794700       0.28396300       0.20641017      -2.68758684       0.14552194
Fe       0.95387000       5.17746000       5.28728000      -0.57085000      -0.50160400      -1.80733600      -0.93862682      -0.58070292      -1.38028952
Fe       1.93602000       3.09888000       2.36598000      -0.08855100       0.43128300      -0.27209000      -0.18110989       0.45611834      -0.77383853
Fe       5.69037000       1.28357000       4.20026000      -0.40866000      -0.49067900       0.18976600      -0.88801281      -0.36200479       0.19024279
Fe       1.94321000       2.86141000       5.39871000      -0.55906500       0.73218900      -1.80086600      -0.41594588       0.70074482      -2.00232041
Fe       4.33122000       5.38124000       5.25469000      -0.73272900       4.56545400       1.52017900      -0.50955234       4.38589373       1.61257552
B        0.37598000       1.64060000       1.21420000      -3.21263000       2.85095800       0.76078000      -2.84888212       2.66768640       0.67783004
B        1.88110000       4.04794000       3.96741000       2.48956600       2.45119300      -0.32261600       2.65395555       2.44186356      -0.23117744
B        3.63878000       0.94242000       5.41981000      -0.01444500       0.67937600       0.95779200       0.06215617       0.80995530       1.04245852
Si       1.19380000       0.26963000       0.19686000       0.54051800       0.24528300      -1.93219100       0.59734299       0.11568259      -1.75476365
Si       4.57825000       3.47658000       1.16117000       0.15934200       1.26766700      -0.81102600       0.15986033       1.53323918      -0.86797990
Si       1.09558000       0.76720000       2.75124000       0.04909300      -1.52033200       1.50719200      -0.02106962      -1.64631225       1.47175114
54
Lattice="8.579999685 0.0 0.0 0.0 8.579999685 0.0 0.0 0.0 8.5799996" Properties=species:S:1:pos:R:3:REF_forces:R:3:MACE_forces:R:3 config_type=Fe34B10Si10 REF_energy=-356.0869274 MACE_energy=-356.53391209857875 pbc="T T T"
Fe       0.92877000       1.08311000       2.12831000      -0.53214900      -1.15432400       0.53007800      -0.74968161      -1.14764437       0.39492232
Fe       1.12794000       0.45096000       7.37327000      -2.86345100       2.18226700       1.45805300      -2.79018254       1.95266287       1.37633333
Fe       0.91289000       3.61082000       1.96264000      -1.66570100       0.50807500      -4.76654600      -1.80447358       0.41079134      -4.86870857
Fe       0.97242000       3.25012000       3.83975000      -0.85629000      -1.23507100      -0.91491200      -1.14486182      -1.29384147      -0.08665660
Fe       1.43574000       3.84332000       5.84621000      -1.94378300      -0.72872400       4.94145300      -2.09714520      -0.69653685       4.85249249
Fe       0.45897000       5.99881000       1.32384000       1.86679900       1.45939200      -0.33976700       1.63693213       1.48734052      -0.18500030
Fe       0.05714000       6.25044000       6.01250000       0.66851500      -0.88142700       1.67028200       0.61648652      -0.76259767       1.64466322
Fe       1.87526000       7.05991000       7.27744000      -5.90957000       6.81146600       5.95768600      -5.70968699       7.31514815       6.00832297
Fe       4.21220000       0.80536000       3.81626000       0.44958900      -1.97725700       0.54591300       0.41783000      -1.85112371       0.38229899
Fe       2.64196000       0.75311000       5.88605000       0.80305000      -0.92688600      -1.50973400       0.46628187      -1.02378267      -1.50913075
Fe       2.51735000       4.27963000       7.86001000      -0.17185400       2.88247300       0.00075600      -0.00396097       2.88886224       0.12576207
Fe       2.46175000       4.76211000       4.38544000       2.27245000       6.36429500      -0.60000700       2.25218559       6.42566899      -0.82454755
Fe       3.99132000       4.46692000       6.09268000      -0.21521200      -1.96607600      -0.25853400      -0.19114329      -2.31767644      -0.19767366
Fe       4.03283000       6.20484000       2.50717000       0.32509400      -1.83048700       1.07686200       0.39493087      -1.77161844       1.03335251
Fe       2.62183000       8.12097000       1.25125000      -5.45108600      -1.04608100      -0.88869000      -5.48626927      -1.15251641      -0.64439514
Fe       2.34208000       7.49949000       3.33705000      -1.45221900       0.10179900       1.96325000      -1.29309610       0.16676714       1.63863928
Fe       4.67554000       0.98699000       8.35162000       1.97529500       0.95938300       0.07305200       1.68271531       0.91383993       0.27080112
Fe       4.68615000       2.28426000       1.60336000       6.03713100       4.39249100       1.56082500       6.23214497       4.29739889       1.08934565
Fe       4.95897000       4.28949000       0.91503000       1.24258400       3.77490300      -1.07876200       0.87938283       3.61685733      -1.22949400
Fe       5.62605000       3.84953000       3.25301000      -4.56775200       3.43217100       2.09526400      -4.52205970       3.51608562       1.90318211
Fe       5.63153000       5.70233000       4.67966000       0.04558900       0.36352900      -0.74034800       0.02843245      -0.01778962      -0.57425145
Fe       5.00954000       6.14620000       6.89198000       4.51113600      -2.60361300       1.43664400       4.57008369      -2.33230881       1.44342520
Fe       5.34723000       7.32984000       0.56425000       3.41130600      -7.55812200      -7.44238600       3.58960102      -7.05634218      -7.35716938
Fe       4.57141000       8.20633000       1.67615000      -2.51651100       6.57056000       9.11650700      -2.76400888       6.03885270       8.80363959
Fe       5.67084000       7.83697000       6.02451000      -0.02983000       3.57151200       0.33120700       0.01101938       3.53790371       0.32047339
Fe       7.65837000       1.05332000       0.64336000       1.95813700       2.93603900      -3.62028800       1.86473260       2.84648129      -3.56762474
Fe       7.23579000       1.49494000       3.62009000       0.88838800      -1.50203300       3.00240400       0.91285515      -1.44306810       3.09603408
Fe       6.96409000       1.59543000       6.70415000       0.40175100      -2.57633900      -0.54943900       0.54386568      -2.51978670      -0.61587229
Fe       6.97946000       3.05325000       2.27831000       3.01329100      -2.85779700      -7.80747400       2.47665723      -2.97520941      -7.29523393
Fe       7.05854000       3.62734000       7.13255000       0.94483300       2.42104600       2.56329500       1.03443562       2.47419091       2.51327196
Fe       7.47490000       4.49325000       0.92243000      -3.13561000       0.06366500       0.11142200      -2.85212791       0.52913741      -0.10587921
Fe       7.76499000       5.40883000       4.05655000       3.42051700      -2.49950500       1.10150300       3.49525317      -2.59326695       1.15992419
Fe       6.91686000       6.16423000       2.38917000      -4.34160700       0.52717700      -3.24358900      -4.34893288       0.52400861      -3.22754318
Fe       7.31773000       7.39473000       4.73130000      -1.41907300       3.06948200       1.38572900      -1.52185183       2.93672487       1.46314032
B        1.63947000       5.44017000       2.85377000      -1.37965300       1.67099600      -0.34434500      -1.46861192       1.77280254      -0.53247591
B        3.47444000       1.29905000       1.69513000      -6.04542900      -7.46227000      -1.52467000      -5.87280246      -7.07883170      -0.99782214
B        2.31673000       1.42955000       3.77944000      -1.85652800      -2.14982900       3.21956500      -1.66720351      -1.96400466       3.41358591
B        3.17088000       0.01260000       8.16689000      -2.14308300      -0.12737100      -3.63430700      -1.98961725       0.09130436      -3.58265061
B        2.48887000       2.23189000       2.44876000      -1.30373000       3.96631200      -0.94871100      -0.88637529       3.79809231      -1.29552755
B        3.55016000       3.21990000       0.17024000       2.13469500      -3.52588700       0.23974700       2.08240425      -3.38239604       0.31059575
B        3.12966000       3.07291000       4.24572000      -6.99085300       0.34377600      -0.16579100      -7.02047083       0.17692445      -0.13756899
B        2.38358000       5.95301000       6.34325000       2.25901800      -8.76611800      -6.31465800       2.15119841      -9.29984501      -6.54313334
B        4.46260000       2.62992000       4.23823000       7.08507900      -1.75449200       0.40993300       7.17066029      -1.92369806       0.42234499
B        7.51183000       3.59374000       3.85724000       1.49621300      -1.20378300       3.39561400       1.55923377      -1.04316499       3.20522822
Si       0.50050000       1.66927000       5.10425000      -1.02554400      -2.67263500       2.61432900      -0.76945818      -2.92230758       2.68421540
Si       0.41923000       4.50138000       8.15701000       0.82744200      -0.47721100      -2.57541600       1.09148635      -0.42130966      -2.92020885
Si       2.90131000       4.25049000       1.93860000       2.71957100       0.04497600      -0.88170100       2.85484593      -0.00894419      -1.09046070
Si       3.74353000       6.85388000       5.19884000      -1.20766000       1.80214700      -2.20114300      -1.04633361       2.05845001      -2.09474702
Si       3.54209000       6.47938000       8.21357000      -0.45014500      -1.75854100       4.24377300      -0.53434879      -2.05208958       4.41295656
Si       4.55252000       1.74669000       6.40118000       0.28733400       0.20348600      -1.69136000       0.19010102       0.11256153      -1.55607772
Si       5.87020000       3.30923000       5.41310000       1.93974000       0.55942400      -1.14043100       1.57554781       0.82369448      -1.09686760
Si       6.68392000       0.09389000       2.07850000      -2.78148600      -1.30329400       2.70552900      -2.39899832      -1.21208188       2.76135658
Si       7.30980000       7.36953000       0.08595000       4.18267400      -0.22507900      -1.67891000       4.11950876      -0.47694524      -1.69084647
Si       8.41387000       7.50606000       2.97540000       5.08859000       1.78741200      -0.88875800       5.03289007       2.02817619      -0.90274052
54
Lattice="8.579999685 0.0 0.0 0.0 8.579999685 0.0 0.0 0.0 8.5799996" Properties=species:S:1:pos:R:3:REF_forces:R:3:MACE_forces:R:3 config_type=Fe34B10Si10 REF_energy=-359.84864784 MACE_energy=-359.63497037923696 pbc="T T T"
Fe       0.39531000       2.37288000       0.87042000       3.27925500       2.43832800      -1.60261100       3.19577713       2.68148701      -1.71345031
Fe       0.75383000       1.65209000       3.11094000       1.30783500      -0.34615400      -0.09267000       1.29824119      -0.89361210       0.12961196
Fe       1.33201000       3.79282000       7.26231000      -2.40668100      -1.18131200       0.32245500      -2.61467699      -1.13561852       0.32824102
Fe       0.64436000       4.41396000       2.97573000       2.42004200      -2.26182600       0.38963900       2.47127328      -2.02662110       0.36961189
Fe       0.14751000       6.42079000       3.51005000      -3.07002100       1.32407200      -2.30638400      -3.01755189       1.22923244      -2.28909519