54
Lattice="8.579999685 0.0 0.0 0.0 8.579999685 0.0 0.0 0.0 8.5799996" Properties=species:S:1:pos:R:3:REF_forces:R:3:MACE_forces:R:3 config_type=Fe34B10Si10 REF_energy=-352.89092233 MACE_energy=-353.3001887651102 pbc="T T T"
Fe       1.46495000       0.71583000       1.12880000       3.73230100      -3.41607500      -3.76209700       3.67853266      -3.44131519      -3.56081378
Fe       0.56244000       2.07917000       1.96452000      -3.31290700       4.06628900       2.54508600      -3.34429876       4.06169294       2.35404170
Fe       0.86636000       2.12990000       5.00906000     -10.85567700      -2.87102900      12.20968700     -10.88377959      -2.94052704      12.20108919
Fe       0.24697000       2.61233000       7.83061000      -0.37811800      -2.03816900      -0.08744800      -0.36522634      -2.07212620       0.09717957
Fe       0.35437000       4.66395000       8.16447000      -1.30300600       1.62250000       0.84662400      -1.36393688       1.75259444       0.79570423
Fe       0.83543000       8.00840000       3.01492000       5.54921000      -2.55787300       0.52513800       5.59110081      -2.64520651       0.45937833
Fe       2.03952000       7.84431000       6.63062000      -4.28706100       1.82495200      -1.68802900      -4.05833315       2.03830058      -1.71019926
Fe       3.34318000       0.11090000       2.96052000      -0.46571400      -0.35056300       0.37864800      -0.49195949      -0.17441799       0.46134048
Fe       3.26317000       2.11539000       1.48699000      -3.47884800      -0.03222100       0.61542300      -3.29705209      -0.26172165       0.24425805
Fe       4.14313000       2.75755000       3.31065000      -0.71378000      -2.73118300       1.93004800      -0.69899378      -2.43809291       1.87580264
Fe       2.55051000       2.67374000       7.19710000      -2.55215900      -0.93589000       1.77261600      -2.29191563      -1.02795333       1.69855746
Fe       3.61327000       2.86500000       5.46497000       1.55763200       0.20514300      -0.56676300       1.45836503       0.30777149      -0.28318480
Fe       2.62400000       4.72550000       1.39174000      -1.08585200      -1.19598700       0.59645400      -1.34462270      -0.95973275       0.68260525
Fe       2.20317000       5.21693000       3.87451000      -3.92870900      -4.38103900      -4.92199500      -3.87388756      -4.31303780      -5.02379797
Fe       3.93082000       4.37819000       8.08226000       1.07616800       0.44807800      -0.99700400       0.97530449       0.24571495      -1.01711139
Fe       2.44961000       7.01753000       1.08943000       0.32119000      -1.55635000       3.27006500       0.44284798      -1.61541053       3.34826091
Fe       3.02500000       6.15780000       5.08193000      -1.08486800       1.64126100       3.95415400      -0.37060916       1.64656122       3.97153032
Fe       5.77712000       0.44616000       0.16142000      -2.43333700       0.07175000       4.13474700      -2.41770037       0.42131408       4.17194016
Fe       5.66964000       0.14892000       2.95259000      -3.67617900       1.90971100       0.12919700      -3.69725406       1.65808085       0.30321845
Fe       5.39484000       2.66317000       1.55162000       4.08183700      -3.39937100       3.88213200       3.98233359      -3.76137327       4.12779821
Fe       5.91309000       3.40423000       8.31953000       8.90196200       5.48305700      -2.72562400       8.70920651       5.42839963      -2.74464040
Fe       4.96126000       4.63305000       3.41410000      -3.60269200      -2.00302700       2.25051900      -3.88482148      -2.33005858       2.38930364
Fe       5.11347000       6.81217000       1.78872000      -0.87770500       0.06714300      -1.61156800      -0.71440198       0.12187916      -1.62483929
Fe       5.00950000       6.45991000       8.24507000      -2.30619500      -0.19808200      -1.52355700      -2.19884377      -0.03066738      -1.73109968
Fe       4.64263000       7.71190000       5.75084000       2.50156800       4.23919200      -1.55456800       2.55671445       4.26810112      -1.60333203
Fe       7.32285000       0.33022000       5.03535000      -0.99210900      -0.59745100       4.73628300      -0.98818719      -0.36178470       4.71079725
Fe       6.75330000       1.32958000       7.05071000       0.53851300       2.01290400       0.36400700       0.48813502       1.86898361       0.32425068
Fe       6.82686000       2.53028000       3.66692000      -0.08907100      -0.12987400      -0.26318300       0.03852533      -0.19765254      -0.22429296
Fe       6.83617000       5.56618000       0.59386000       1.74434500       1.47371700      -3.32847200       1.78928592       1.78015075      -3.48306477
Fe       8.27091000       4.29855000       2.87718000       3.23308900       0.33980500       1.37352500       3.09472696       0.18361071       1.33176465
Fe       6.58774000       4.90718000       4.97515000      -1.87594500       0.58060600      -0.05143700      -2.08129013       0.57958088      -0.53608719
Fe       6.86773000       6.79187000       3.27473000       1.52763600      -2.76254700       0.67579100       1.46848438      -2.45228926       0.36230011
Fe       8.09083000       8.29691000       0.84396000      -4.18921500      -1.95965200       9.56442300      -4.21965945      -2.25706052       9.62831444
Fe       6.62133000       7.67903000       7.47205000      -3.65417600       1.51975600      -3.32990400      -3.97322401       1.31006178      -3.46691255
B        3.45077000       6.81738000       6.75435000       2.04131500      -2.79808300       3.80923700       1.95685628      -2.85481171       3.92114552
B        4.67436000       1.10514000       4.73414000       0.75036200       0.95391600      -0.52852700       0.80110368       0.92879145      -0.42490019
B        6.18153000       2.20088000       5.47737000      -4.49435700      -3.20609500      -2.27763700      -4.63604665      -3.16029351      -2.43604423
B        5.08133000       4.10197000       6.35983000       0.35152900       0.25548900      -0.65354500       0.49666199       0.31686286      -0.58326686
B        4.48663000       4.29393000       1.40792000      -0.27448100       1.04603100       0.21283300      -0.22890511       1.21712416       0.22831491
B        4.96286000       5.88068000       6.14703000       0.60492000      -1.85032800       0.29314600       0.47132462      -1.88046719       0.12890644
B        8.17242000       5.65216000       5.55863000       1.00443800       0.65677900      -0.69824300       1.05071052       0.74045357      -0.23656598
B        7.98743000       6.92663000       6.60530000       5.86774900       2.58695800      -4.05103700       5.76503691       2.29388318      -3.61351555
B        7.10769000       5.72812000       6.91109000      -2.33709700      -3.34606800       1.34633400      -2.12331693      -3.40360783       1.53448658
B        7.81665000       6.81498000       8.33858000       5.04350100      -2.41043400       0.97359300       5.01875367      -2.59613415       0.52920115
Si       0.06983000       0.14925000       7.74742000       4.12649000       2.60901100      -8.87608100       3.98239778       2.59576526      -8.79884614
Si       1.93337000       2.41223000       3.74634000      10.14534600       2.98113100     -12.18526000      10.22936624       3.05262654     -12.01063371
Si       0.75978000       6.02813000       1.69309000      -4.13401100      -0.74920300       1.02787300      -4.13370982      -0.85783366       0.96922597
Si       2.22023000       5.10313000       7.16329000      -1.58663400       1.19675500      -1.89967800      -1.65881473       1.16713198      -1.85378422
Si       3.27754000       8.17117000       8.35443000       4.04667900       4.58101600      -2.24829100       3.92728142       4.53452848      -2.38411314
Si       4.48145000       2.18337000       8.34202000      -5.72220500      -5.96162700      -4.99603400      -5.45749122      -5.92063615      -5.14515702
Si       6.36439000       4.54151000       2.12641000       2.28764700      -2.33178900       1.39384200       2.55077422      -2.14261320       1.28714909
Si       4.52267000       6.51460000       3.75633000       0.42177200       5.22743800       1.25328700       0.12305494       5.30191224       1.34103448
Si       7.68278000       0.22257000       3.11016000      -0.17295300       4.89916800      -3.86478000      -0.23966861       4.84948953      -3.93539935
Si       7.35363000       3.38410000       6.13231000       4.40786200       1.27045000       2.62604800       4.39106523       1.42545812       2.95270263
54
Lattice="8.579999685 0.0 0.0 0.0 8.579999685 0.0 0.0 0.0 8.5799996" Properties=species:S:1:pos:R:3:REF_forces:R:3:MACE_forces:R:3 config_type=Fe34B10Si10 REF_energy=-354.71875992 MACE_energy=-355.3984046622586 pbc="T T T"
Fe       0.43313000       1.19321000       2.96848000       1.47291300       2.99028000       0.61180900       1.45110788       2.89419340       0.36533909
Fe       0.91365000       1.12516000       8.09995000       2.76260400      -2.00335600       1.20968300       2.38606982      -1.88216166       1.06017588
Fe       1.17142000       2.67870000       5.23446000      -1.90323000       6.04651700       0.58026800      -1.70241227       6.14804753       0.37206691
Fe       0.60772000       3.85484000       0.87278000       2.66909500       4.89444800       4.53699300       2.62023651       5.08847378       4.14187248
Fe       1.41565000       3.44858000       3.01161000      -0.29549500       2.03729500      -0.74017400      -0.01569835       1.92389824      -0.65016403
Fe       0.04226000       2.91249000       8.09734000      -3.39897200      -2.84207300      -2.69442200      -2.78538927      -2.99894922      -2.43637016
Fe       1.33282000       7.09057000       5.22634000      -0.45239700      -1.35392500       0.92503500      -0.23012685      -1.48552684       0.95356693
Fe       2.06045000       7.92051000       0.98063000      -3.11321000      -0.30108300      -2.49280600      -3.25274663      -0.42725073      -2.47419233
Fe       2.03627000       8.24295000       3.50701000      -1.42216600       4.38122900       0.88517600      -1.50683511       4.09860979       0.63701440
Fe       0.01253000       8.02686000       7.00667000       2.58679700       0.98610200     -11.80201700       2.46247837       0.89039335     -11.90650462
Fe       3.00353000       0.57289000       6.13981000      -1.03922300       0.18357300       0.93137300      -0.76958646       0.13778746       0.98932970
Fe       3.69949000       2.65196000       7.51811000       2.76433000      -4.34399200      -3.80269000       2.60642580      -4.11508848      -3.67324261
Fe       2.94478000       6.44154000       3.03987000       7.21319500      -3.66655800      -1.17614100       6.98321514      -3.45729696      -0.99549122
Fe       2.94309000       5.75189000       6.64956000      -6.24071800      -0.74678300       3.86021800      -6.42341999      -0.63913246       3.97969623
Fe       3.71160000       8.39321000       1.86324000       2.24845700      -0.43546600       0.28887200       2.32566818      -0.11107346       0.67946432
Fe       4.07810000       8.43915000       4.32840000       2.88035800       1.28304800      -0.49181300       2.84425973       1.32481701      -0.76660408
Fe       5.57499000       0.73262000       6.31633000      -3.12774100      -1.68249800      -0.98058200      -2.79293470      -1.71544318      -0.92110101
Fe       4.70712000       1.94493000       1.65492000      -2.04675700       4.97917500      -3.67899600      -2.14489832       4.78991901      -3.42642766
Fe       4.73401000       4.18392000       1.24748000       0.71501700       1.80608500      -0.06999200       0.71839599       1.98505841      -0.12072047
Fe       4.56687000       4.22266000       4.39618000       0.73801700       3.32591500      -2.10569900       0.51879895       3.16071890      -2.16147507
Fe       4.51224000       4.61167000       7.05684000       2.53211900      -0.41024200       0.53825400       2.95658183      -0.74880768       0.48213352
Fe       6.32808000       6.81945000       4.24288000      -3.20445400      -0.33519400      -1.28892300      -2.79946210      -0.23610624      -1.07357490
Fe       6.22240000       7.17309000       0.16230000      -3.30904600      -2.75215800       1.90373500      -3.51679983      -2.96668628       2.04509904
Fe       4.54224000       7.44382000       7.03838000       0.17895600      -5.02037800      -8.74618400       0.30073541      -5.26415849      -8.85604672
Fe       4.73272000       8.55832000       8.35561000      -0.10588400       8.96287400       6.54083400      -0.29247668       9.34770621       6.18482362
Fe       7.67285000       2.82429000       2.17742000      -2.12886900      -0.76272600      -2.06587500      -2.10930680      -0.83356256      -1.98498104
Fe       6.74071000       1.77406000       4.33655000       0.47479500       0.50025500      -0.42349800       0.08028996       0.41239636      -0.45612210
Fe       7.16362000       1.61896000       6.68131000       5.11373900       1.83737400       0.70818800       4.70649224       1.63307685       0.63680836
Fe       6.73653000       4.13840000       7.84564000       0.19062300       0.32905600       3.59274800       0.16680880       0.47620634       3.61818367
Fe       6.61248000       5.35948000       2.44590000       0.96755600      -0.77403900      -0.47053600       0.84769413      -0.66363492      -0.46340338
Fe       8.39074000       4.95678000       4.82580000       0.50677700       3.21370700       1.22596300       0.60415959       3.13776195       1.08548815
Fe       6.62275000       6.29700000       6.29237000       0.91106900      -0.58785400       1.74696000       0.82588166      -0.48357713       1.60239058
Fe       8.00875000       8.14674000       2.12563000      -1.25903800      -1.94608200      -3.37077000      -0.86233065      -1.93406061      -3.41877414
Fe       7.96861000       8.10559000       4.08816000       1.24434400       0.03207600       4.40361200       0.71682584       0.04758816       4.54895673
B        3.14587000       1.61638000       2.59818000      -3.96044800      -1.57388800      -2.24367700      -3.98782925      -1.49481412      -2.03464173
B        4.07212000       1.93087000       3.78701000       0.55534200       0.12762300      -3.25123200       0.41200579       0.17810681      -3.19218182
B        2.24412000       1.90783000       4.05913000      -1.80380000      -9.70850100      -5.48536600      -1.86535000      -9.99661996      -5.62118037
B        2.90130000       3.06657000       4.45062000       2.48509300       7.60479000      -1.50334300       2.84964728       7.25854323      -1.51698023
B        2.82587000       3.80138000       5.80651000       0.21675600       2.27927400       3.92227300       0.28850610       2.14696965       3.90183810
B        2.60929000       5.04297000       1.66311000       0.12617300      -0.77075900      -0.46531300      -0.03879544      -0.80344069      -0.44091389
B        2.47198000       4.95014000       4.32601000      -0.76752800      -1.31946700       0.35153300      -0.81028668      -1.22254204       0.40615606
B        2.73354000       7.81887000       7.66829000      -1.47869400      -0.15377200       0.00458000      -1.52325319      -0.17091029       0.21675621
B        5.68071000       2.28134000       7.79544000      -0.95924500       0.41857400       1.11780500      -0.96058971       0.36870399       1.06161253
B        7.77536000       3.70665000       3.76574000      -0.44877700      -1.48394500      -0.38974400      -0.54779552      -1.40135482      -0.06830367
Si       0.79518000       0.92195000       5.77957000      -1.66645900      -4.94136200      -1.10925300      -1.61786472      -5.03989968      -0.95264016
Si       0.88055000       4.20706000       6.73551000       1.15626000       3.58432200      -0.32349000       1.11811670       3.71346146      -0.23329133
Si       1.15025000       6.44729000       2.43826000      -7.77651300      -1.83655100      -1.54918700      -7.84051140      -1.70630094      -1.70663115
Si       2.82820000       3.29548000       0.50208000      -4.05499500       1.58525200       5.32597100      -4.08348769       1.42423653       5.24453220
Si       4.14031000       6.38272000       0.30005000      -2.16949800      -2.44928300       2.57761000      -2.28497073      -2.41872266       2.49161210
Si       3.68345000       6.43010000       5.01209000       3.98893100       0.98565200      -2.13453700       3.85016855       1.16531916      -2.13427577
Si       5.73751000       0.59059000       2.53265000       5.08228400      -4.90021500       2.23852200       5.10170592      -4.87176626       2.49662144
Si       4.51163000       2.47994000       5.36819000       2.60737700      -2.86786400       7.12589500       2.78027403      -2.62604534       7.06143569
Si       6.43436000       3.75222000       5.86206000       1.38008400       0.66155200      -3.64612400       1.52152666       0.73863866      -3.74579870
Si       8.06432000       7.52318000       8.55473000       2.36409700      -3.06603600      11.34847700       2.72108149      -2.77569856      11.16906044
18
Lattice="6.5 0.0 0.0 0.0 6.5 0.0 0.0 0.0 6.5" Properties=species:S:1:pos:R:3:REF_forces:R:3:MACE_forces:R:3 config_type=Fe12B3Si3 REF_energy=-113.87843945 MACE_energy=-113.07636720130304 pbc="T T T"
Fe       5.40234000       5.43492000       1.53729000      -1.39532100       2.04028400       0.71142300      -1.01409623       1.85845193       0.69882036
Fe       2.09750000       2.10361000       0.54730000       2.35673700      -0.33103000       1.27254800       2.53231294      -0.07901397       1.27400254
Fe       2.84360000       1.73250000       3.81271000       2.28004000      -1.18251600      -0.27344700       2.20255705      -0.97531006      -0.20997884
Fe       0.77541000       4.93717000       1.04317000       1.56096300      -3.83372900       1.76362000       1.27351581      -3.42148596       1.55414516
Fe       0.07665000       3.70431000       3.74351000      -0.75952900      -0.39175400      -2.23189700      -1.15555296      -0.48049721      -2.26784892
Fe       4.77171000       3.58949000       4.78220000      -1.99219600      -4.62409700       0.48420500      -1.66703222      -4.50891461       0.38715831
Fe       4.12430000       1.49867000       1.46476000       0.29771700      -2.38794700       0.28396300       0.28860293      -2.65170792       0.10382574
Fe       0.95387000       5.17746000       5.28728000      -0.57085000      -0.50160400      -1.80733600      -0.93879074      -0.68880460      -1.34429470
Fe       1.93602000       3.09888000       2.36598000      -0.08855100       0.43128300      -0.27209000      -0.21562441       0.51103661      -0.55607171
Fe       5.69037000       1.28357000       4.20026000      -0.40866000      -0.49067900       0.18976600      -0.80223726      -0.30218125       0.24515554
Fe       1.94321000       2.86141000       5.39871000      -0.55906500       0.73218900      -1.80086600      -0.48850493       0.68795174      -1.91849482
Fe       4.33122000       5.38124000       5.25469000      -0.73272900       4.56545400       1.52017900      -0.58113852       4.34077440       1.54269573
B        0.37598000       1.64060000       1.21420000      -3.21263000       2.85095800       0.76078000      -3.02250818       2.71375142       0.86275967
B        1.88110000       4.04794000       3.96741000       2.48956600       2.45119300      -0.32261600       2.67747518       2.39265600      -0.28785831
B        3.63878000       0.94242000       5.41981000      -0.01444500       0.67937600       0.95779200       0.14140579       0.82194974       1.10656519
Si       1.19380000       0.26963000       0.19686000       0.54051800       0.24528300      -1.93219100       0.64874990      -0.02044729      -1.86123617
Si       4.57825000       3.47658000       1.16117000       0.15934200       1.26766700      -0.81102600       0.18598791       1.47499805      -0.77576850
Si       1.09558000       0.76720000       2.75124000       0.04909300      -1.52033200       1.50719200      -0.06512205      -1.67320702       1.44642372
54
Lattice="8.579999685 0.0 0.0 0.0 8.579999685 0.0 0.0 0.0 8.5799996" Properties=species:S:1:pos:R:3:REF_forces:R:3:MACE_forces:R:3 config_type=Fe34B10Si10 REF_energy=-356.0869274 MACE_energy=-356.96888256562465 pbc="T T T"
Fe       0.92877000       1.08311000       2.12831000      -0.53214900      -1.15432400       0.53007800      -0.70470334      -1.20215370       0.41096272
Fe       1.12794000       0.45096000       7.37327000      -2.86345100       2.18226700       1.45805300      -2.83450186       1.97202250       1.45175930
Fe       0.91289000       3.61082000       1.96264000      -1.66570100       0.50807500      -4.76654600      -1.69305527       0.35160156      -4.78101030
Fe       0.97242000       3.25012000       3.83975000      -0.85629000      -1.23507100      -0.91491200      -1.06872466      -1.21878182      -0.22445441
Fe       1.43574000       3.84332000       5.84621000      -1.94378300      -0.72872400       4.94145300      -2.07224053      -0.59863784       4.67256833
Fe       0.45897000       5.99881000       1.32384000       1.86679900       1.45939200      -0.33976700       1.63299873       1.54447323      -0.16187618
Fe       0.05714000       6.25044000       6.01250000       0.66851500      -0.88142700       1.67028200       0.71555501      -0.77082456       1.73860465
Fe       1.87526000       7.05991000       7.27744000      -5.90957000       6.81146600       5.95768600      -5.75825690       7.21820776       5.97309094
Fe       4.21220000       0.80536000       3.81626000       0.44958900      -1.97725700       0.54591300       0.50845228      -1.90401649       0.44361535
Fe       2.64196000       0.75311000       5.88605000       0.80305000      -0.92688600      -1.50973400       0.53599556      -1.05060339      -1.57512818
Fe       2.51735000       4.27963000       7.86001000      -0.17185400       2.88247300       0.00075600       0.00122855       2.96141630       0.20314219
Fe       2.46175000       4.76211000       4.38544000       2.27245000       6.36429500      -0.60000700       2.17976718       6.32043983      -0.65993560
Fe       3.99132000       4.46692000       6.09268000      -0.21521200      -1.96607600      -0.25853400      -0.18106531      -2.23252276      -0.19647950
Fe       4.03283000       6.20484000       2.50717000       0.32509400      -1.83048700       1.07686200       0.41779547      -1.76141748       1.09857902
Fe       2.62183000       8.12097000       1.25125000      -5.45108600      -1.04608100      -0.88869000      -5.50866611      -1.10781587      -0.62807633
Fe       2.34208000       7.49949000       3.33705000      -1.45221900       0.10179900       1.96325000      -1.24322422       0.18876772       1.62469142
Fe       4.67554000       0.98699000       8.35162000       1.97529500       0.95938300       0.07305200       1.66894845       0.84165768       0.35002206
Fe       4.68615000       2.28426000       1.60336000       6.03713100       4.39249100       1.56082500       6.23541023       4.33456338       1.16709384
Fe       4.95897000       4.28949000       0.91503000       1.24258400       3.77490300      -1.07876200       0.77493208       3.53753669      -1.25045655
Fe       5.62605000       3.84953000       3.25301000      -4.56775200       3.43217100       2.09526400      -4.54488141       3.53587146       1.89815280
Fe       5.63153000       5.70233000       4.67966000       0.04558900       0.36352900      -0.74034800       0.01981862      -0.05318577      -0.59868912
Fe       5.00954000       6.14620000       6.89198000       4.51113600      -2.60361300       1.43664400       4.56904928      -2.37820159       1.42480803
Fe       5.34723000       7.32984000       0.56425000       3.41130600      -7.55812200      -7.44238600       3.41979464      -7.00662268      -7.21170681
Fe       4.57141000       8.20633000       1.67615000      -2.51651100       6.57056000       9.11650700      -2.66999448       6.06982939       8.66204805
Fe       5.67084000       7.83697000       6.02451000      -0.02983000       3.57151200       0.33120700      -0.07096559       3.63129055       0.35983794
Fe       7.65837000       1.05332000       0.64336000       1.95813700       2.93603900      -3.62028800       1.88861311       2.94489776      -3.53942110
Fe       7.23579000       1.49494000       3.62009000       0.88838800      -1.50203300       3.00240400       0.95571650      -1.52238988       3.06722476
Fe       6.96409000       1.59543000       6.70415000       0.40175100      -2.57633900      -0.54943900       0.51848183      -2.54077708      -0.55211865
Fe       6.97946000       3.05325000       2.27831000       3.01329100      -2.85779700      -7.80747400       2.45207359      -2.94300280      -7.25131824
Fe       7.05854000       3.62734000       7.13255000       0.94483300       2.42104600       2.56329500       1.03238382       2.47256758       2.49430081
Fe       7.47490000       4.49325000       0.92243000      -3.13561000       0.06366500       0.11142200      -2.89823345       0.45488013      -0.22719035
Fe       7.76499000       5.40883000       4.05655000       3.42051700      -2.49950500       1.10150300       3.49546760      -2.65519266       1.11220311
Fe       6.91686000       6.16423000       2.38917000      -4.34160700       0.52717700      -3.24358900      -4.31664078       0.60399392      -3.19612293
Fe       7.31773000       7.39473000       4.73130000      -1.41907300       3.06948200       1.38572900      -1.46040108       3.02971523       1.38227025
B        1.63947000       5.44017000       2.85377000      -1.37965300       1.67099600      -0.34434500      -1.51119259       1.77980528      -0.60852296
B        3.47444000       1.29905000       1.69513000      -6.04542900      -7.46227000      -1.52467000      -5.89180070      -7.19172114      -1.14585549
B        2.31673000       1.42955000       3.77944000      -1.85652800      -2.14982900       3.21956500      -1.72717750      -1.99024992       3.45482371
B        3.17088000       0.01260000       8.16689000      -2.14308300      -0.12737100      -3.63430700      -1.99729863       0.10983525      -3.58031123
B        2.48887000       2.23189000       2.44876000      -1.30373000       3.96631200      -0.94871100      -0.89713509       3.84837554      -1.29127382
B        3.55016000       3.21990000       0.17024000       2.13469500      -3.52588700       0.23974700       2.16178842      -3.44018153       0.30196809
B        3.12966000       3.07291000       4.24572000      -6.99085300       0.34377600      -0.16579100      -7.13724134       0.13491411      -0.20040243
B        2.38358000       5.95301000       6.34325000       2.25901800      -8.76611800      -6.31465800       2.18622154      -9.22803222      -6.57917145
B        4.46260000       2.62992000       4.23823000       7.08507900      -1.75449200       0.40993300       7.20632424      -1.82761845       0.45490313
B        7.51183000       3.59374000       3.85724000       1.49621300      -1.20378300       3.39561400       1.53881515      -1.09472215       3.24346405
Si       0.50050000       1.66927000       5.10425000      -1.02554400      -2.67263500       2.61432900      -0.79937339      -2.91176820       2.59179618
Si       0.41923000       4.50138000       8.15701000       0.82744200      -0.47721100      -2.57541600       1.06212431      -0.40996887      -2.82995318
Si       2.90131000       4.25049000       1.93860000       2.71957100       0.04497600      -0.88170100       2.90399126      -0.02555108      -1.08334868
Si       3.74353000       6.85388000       5.19884000      -1.20766000       1.80214700      -2.20114300      -1.07060618       2.04526318      -2.15667451
Si       3.54209000       6.47938000       8.21357000      -0.45014500      -1.75854100       4.24377300      -0.54215579      -2.00132906       4.44657643
Si       4.55252000       1.74669000       6.40118000       0.28733400       0.20348600      -1.69136000       0.26162628       0.15359149      -1.64943588
Si       5.87020000       3.30923000       5.41310000       1.93974000       0.55942400      -1.14043100       1.57195560       0.76679489      -1.08779654
Si       6.68392000       0.09389000       2.07850000      -2.78148600      -1.30329400       2.70552900      -2.47133979      -1.24091222       2.82199293
Si       7.30980000       7.36953000       0.08595000       4.18267400      -0.22507900      -1.67891000       4.12061616      -0.51775171      -1.67653629
Si       8.41387000       7.50606000       2.97540000       5.08859000       1.78741200      -0.88875800       5.03493053       1.97364051      -0.90723342
54
Lattice="8.579999685 0.0 0.0 0.0 8.579999685 0.0 0.0 0.0 8.5799996" Properties=species:S:1:pos:R:3:REF_forces:R:3:MACE_forces:R:3 config_type=Fe34B10Si10 REF_energy=-359.84864784 MACE_energy=-360.3098376977342 pbc="T T T"
Fe       0.39531000       2.37288000       0.87042000       3.27925500       2.43832800      -1.60261100       3.21485422       2.68713311      -1.77830323
Fe       0.75383000       1.65209000       3.11094000       1.30783500      -0.34615400      -0.09267000       1.28483377      -0.85530246       0.12895466
Fe       1.33201000       3.79282000       7.26231000      -2.40668100      -1.18131200       0.32245500      -2.54072618      -1.09197739       0.23973630
Fe       0.64436000       4.41396000       2.97573000       2.42004200      -2.26182600       0.38963900       2.48644324      -2.09787162       0.26989265
Fe       0.14751000       6.42079000       3.51005000      -3.07002100       1.32407200      -2.30638400      -3.10141247       1.32386273      -2.45269692