15
Lattice="5.664536 0.0 0.0 0.0 5.664536 0.0 0.0 0.0 5.664536" Properties=species:S:1:pos:R:3:REF_forces:R:3:MACE_forces:R:3 config_type=Fe13Si1B1 REF_energy=-108.19731369 MACE_energy=-54.24120703486645 pbc="T T T"
B        4.05901000       2.70568000       1.01305000      -1.63855300      -0.82904000       0.73367400      -1.27544143      -0.36758094       0.07642912
Si       2.82856000       0.10655000       3.62968000      -1.37485700       1.04288500       1.12851000      -0.79482961       0.44901713       0.64060109
Fe       2.58297000       1.18377000       1.20948000       0.93367000       0.14656100       0.38941200       1.58492342      -0.50107137      -0.34262917
Fe       0.38153000       0.68989000       3.08804000       0.88723900       3.84366500       0.15858400       0.57299856       1.33192524       0.47386516
Fe       1.54589000       2.38203000       4.72041000      -2.07199500      -0.40415400      -0.21731400      -1.58931139      -1.30746230      -0.22745147
Fe       0.00965000       3.55673000       0.57847000       1.87002200       0.46818400      -0.57360300       0.39391064       0.16107884       0.20064325
Fe       4.86453000       2.71686000       2.75028000       1.57660800      -1.70083300       1.51404400       0.59527203      -0.80225614       1.18953297
Fe       4.62966000       0.98828000       5.06676000       0.07922500       1.31640700       1.29952100      -0.73682843       1.31268425       0.31365245
Fe       0.62475000       4.47163000       2.76945000       1.95380600      -3.21231900      -1.53544400       1.54416535      -0.81382530      -1.10881654
Fe       4.87774000       4.67993000       4.41653000      -0.64493200      -0.53503200       0.30435400      -0.61758898      -0.16238167      -0.30871133
Fe       3.59664000       2.87221000       4.83153000       0.23532500      -0.37357900      -1.60523300       0.38592616       0.19316883      -0.55300371
Fe       0.66156000       0.50203000       0.73880000      -0.79576700      -0.85035100      -0.29863700      -0.88633032      -0.91229901      -0.19124626
Fe       2.16986000       4.37529000       0.15492000      -0.00013300       0.94038800       0.69583500       0.78739923       0.83535841       0.70217567
Fe       3.84648000       4.71531000       2.05312000       0.75417200       0.77170900      -2.19861800       1.19845737       0.51950100      -1.19122834
Fe       2.60819000       2.98871000       2.55518000      -1.76382900      -0.62449100       0.20491400      -1.16272261       0.06414301       0.32618713
15
Lattice="5.664536 0.0 0.0 0.0 5.664536 0.0 0.0 0.0 5.664536" Properties=species:S:1:pos:R:3:REF_forces:R:3:MACE_forces:R:3 config_type=Fe13Si1B1 REF_energy=-108.15566798 MACE_energy=-54.93387247166118 pbc="T T T"
B        4.14873000       2.95379000       1.06658000       0.16200100      -0.29917000      -0.39394100       0.36122999      -0.42454673      -0.88620045
Si       3.70970000       1.75376000       4.70342000       2.39954500       1.99334400       0.69658000       0.75366942       1.20788460       0.20228581
Fe       0.77141000       5.48369000       0.61772000       0.15863900      -0.70463600       0.73580300       0.63117014      -0.77033680       0.35320297
Fe       2.70222000       5.62328000       2.66112000      -2.84701800       1.11988600      -2.77526600      -1.96077731       1.17999042      -1.01701785
Fe       2.40590000       1.49012000       0.76033000       2.44811900      -1.09619800       2.05304000       2.19799259      -0.47904759       0.87597309
Fe       0.05981000       0.25678000       4.08407000      -0.72088300      -0.40435400      -1.12965000      -0.26675543       0.01713271      -0.56301574
Fe       2.69016000       5.46683000       4.60121000      -0.81406600      -1.20768000       2.79556400      -0.34344021      -0.11004518       0.98287778
Fe       1.47386000       1.76151000       4.03878000       0.25632200       2.31886200      -0.70750300       1.03127701       1.50513571      -0.09155159
Fe       5.58209000       3.47185000       2.53703000       2.04828400       0.56513400      -0.37619200       1.62346193       0.37830345       0.57090788
Fe       2.39981000       3.74553000       0.37431000      -0.23425500       0.56240000       0.37900500       0.23597134      -0.29380582       0.30977724
Fe       4.35312000       1.55651000       2.64463000       0.99871600      -1.26274600      -2.03362100       0.30046582      -0.58068056      -1.14912332
Fe       4.71996000       4.32124000       4.97431000      -0.09930100      -2.16645100       0.36829600      -0.69930541      -2.44906118       0.19910884
Fe       4.35696000       5.05523000       1.41829000       0.42683500       0.31250100      -0.90165400      -0.28291799       0.63869112      -0.66226249
Fe       0.47139000       2.05266000       0.60057000      -2.75315200       0.98470800      -0.10508100      -2.31856111       1.31351731      -0.23758888
Fe       3.41003000       3.62129000       2.91823000      -1.42978400      -0.71560000       1.39462200      -1.26348078      -1.13313147       1.11262669
15
Lattice="5.664536 0.0 0.0 0.0 5.664536 0.0 0.0 0.0 5.664536" Properties=species:S:1:pos:R:3:REF_forces:R:3:MACE_forces:R:3 config_type=Fe13Si1B1 REF_energy=-107.93807169 MACE_energy=-52.98731619924024 pbc="T T T"
B        3.89991000       3.42526000       0.45422000       0.11547000      -0.03553900       1.12451100       0.67580376      -0.09845849       1.86726361
Si       3.48762000       0.16630000       4.61337000       0.32574800       0.46308000      -0.01786500      -0.37040687       0.14626607       0.22077958
Fe       2.84778000       1.82037000       0.82228000      -0.98232500      -1.42221600      -1.89337000      -0.86548314      -0.81145980      -2.12177500
Fe       1.34857000       0.81784000       2.30075000      -0.53643500       0.46265000      -1.19653800      -0.05783747       0.26356533      -1.25277694
Fe       1.57642000       1.26355000       4.33118000       0.04619000       0.17232100       0.29400800       1.04044726      -0.18209306       1.14199048
Fe       0.65713000       2.94926000       0.95396000      -1.72120200      -1.22782100       0.66296100      -1.67833812      -0.74280013       0.44777752
Fe       4.05988000       1.97076000       2.38888000       1.24013900      -1.25976700       1.55714700       0.82446192      -0.70936190       0.88549566
Fe       5.41523000       1.91313000       4.86891000      -2.57043500      -0.52568200      -0.40262900      -3.10238836      -0.05770790      -0.03300951
Fe       1.35795000       4.61467000       3.62292000      -1.17710100      -0.19986100       1.26666800      -0.63585258       0.36794295       0.79188980
Fe       4.95776000       4.27854000       4.85033000       2.20080800       0.77958800      -0.24901600       1.09101653       0.15000736       0.03204912
Fe       2.90817000       3.15860000       4.25698000      -0.87756600      -0.39846100       1.25184100       0.36330521      -0.41994177       0.93732701
Fe       4.97903000       5.64594000       1.36431000      -0.69131800      -0.04726100      -0.44322300      -0.91744592       0.22642584      -0.95406586
Fe       1.21860000       5.04312000       0.28941000      -0.01329800       1.97019200      -1.42146800       0.69219717       1.48565589      -1.34412203
Fe       4.19049000       3.99341000       2.69223000       2.99720200       1.59092800      -0.45710200       1.19919499       1.17782720      -0.50007087
Fe       2.24232000       4.14646000       1.80095000       1.64412400      -0.32215200      -0.07592500       1.74132563      -0.79586759      -0.11875258
15
Lattice="5.664536 0.0 0.0 0.0 5.664536 0.0 0.0 0.0 5.664536" Properties=species:S:1:pos:R:3:REF_forces:R:3:MACE_forces:R:3 config_type=Fe13Si1B1 REF_energy=-111.97852358 MACE_energy=-58.11060848465235 pbc="T T T"
B        0.06916000       5.66432000       5.18689000       0.12008200      -0.64043800       0.01360000       0.20332613      -0.94154135      -0.08802888
Si       0.02740000       2.72248000       2.59682000      -0.95092500       0.36379500       0.29566700      -0.79125914       0.35940976       0.23949169
Fe       0.14116000       5.54768000       2.85133000       0.08282300      -0.00674100       0.52027800      -0.60828511       0.29549717       0.37647807
Fe       5.56722000       2.97052000       5.53670000      -0.67309900       0.24460700       0.18564600       0.08094153      -0.10681484       0.31038460
Fe       2.56501000       0.00405000       5.40440000       0.68434000      -0.27592000       0.60718700       0.49753052      -0.28367118       0.70774962
Fe       2.97079000       2.77487000       5.60913000       0.61990200      -0.30745300       0.59180600      -0.46293976      -0.10087078       0.00752372
Fe       3.14055000       2.58779000       2.39876000      -0.26535600       0.46856000       0.15364600      -0.38876590       0.31818757       0.50427935
Fe       1.27023000       1.29362000       1.29220000       0.59662900      -0.36144800      -0.82067800      -0.09943266       0.09798548      -0.88410021
Fe       1.26884000       1.40412000       4.24821000      -0.00500300       0.79776500      -0.57479700       0.01449466       1.23600360      -0.62950091
Fe       1.43809000       4.26211000       1.36341000       0.07769500      -0.05884300      -0.22592600       0.03166842      -0.43015307      -0.20714954
Fe       1.52070000       4.14480000       4.13170000      -0.18321100      -0.27105400      -0.71528600      -0.55419335      -0.69630467      -0.48632503
Fe       4.46936000       1.09579000       0.98330000      -0.11971100       0.01004100       0.24750400       0.50133717       0.21275477       0.01198501
Fe       4.16783000       1.22547000       4.11325000       0.42899800      -0.08684700      -0.08842400       1.14302635       0.09991102       0.20702037
Fe       4.22673000       4.46813000       1.30140000       0.09689500      -0.37725000      -0.41990000       0.29858156      -0.45475658      -0.15248826
Fe       4.20815000       4.21553000       4.01300000      -0.51005900       0.50122500       0.22967700       0.13396958       0.39436310       0.08268039
15
Lattice="5.664536 0.0 0.0 0.0 5.664536 0.0 0.0 0.0 5.664536" Properties=species:S:1:pos:R:3:REF_forces:R:3:MACE_forces:R:3 config_type=Fe13Si1B1 REF_energy=-111.93959828 MACE_energy=-57.78232713874171 pbc="T T T"
B        0.52210000       0.05440000       5.04153000      -0.83789800      -0.96014800      -0.42271900      -0.38498494      -0.90615141      -0.95095199
Si       5.59498000       2.75302000       2.63746000      -0.41285400      -0.16722200       0.32382300      -0.14929681      -0.24733259      -0.18399313
Fe       0.17766000       0.05624000       2.77011000      -0.22089500       0.44737300       1.17937900      -0.42369601       0.11208133       1.06359376
Fe       5.59682000       2.78032000       5.61495000      -0.22239300       0.41310500      -0.03657000       0.01941649       0.27101354      -0.46657077
Fe       2.71989000       5.37982000       5.43745000       0.17724800       0.17436200       0.47840000      -0.67542442       1.00820245       0.19841115
Fe       2.70157000       2.72483000       5.65192000       0.89303700       0.73165300       0.81071700       0.79656247       0.61131298       0.29809689
Fe       2.97278000       2.68063000       2.60608000       0.64664100       0.39382500      -0.89779500       0.72312343       0.77626573      -0.81705189
Fe       1.04462000       1.15381000       0.98518000       0.85892600      -0.28038300       0.02628300       0.85967085       0.37701520       0.44580076
Fe       1.65813000       1.50296000       3.98982000      -0.38663100      -0.26210300      -0.11433700      -1.03048833      -0.28992342       0.47692878
Fe       1.30631000       4.30849000       1.24352000      -0.41412900       0.11159100       0.24697100      -0.43303866      -0.31307195       0.15106535
Fe       1.58576000       4.06734000       3.99489000      -1.17533100      -0.00634600      -0.85725300      -1.30053591      -0.10729693      -0.33000956
Fe       4.12820000       1.13618000       1.10587000       0.62554700       0.31979100       0.22031500       0.76912824       0.41195017       0.41387776
Fe       4.25787000       1.24949000       4.17529000      -0.08913900      -0.07677300       0.23295600       0.47136095       0.12847504       0.29256272
Fe       4.35495000       4.45297000       1.34581000      -0.13361000      -0.53467800      -0.51744000      -0.01191659      -1.12383636      -0.04472111
Fe       4.41108000       4.43949000       4.32316000       0.69148200      -0.30404700      -0.67272800       0.77011924      -0.70870379      -0.54703871
15
Lattice="5.664536 0.0 0.0 0.0 5.664536 0.0 0.0 0.0 5.664536" Properties=species:S:1:pos:R:3:REF_forces:R:3:MACE_forces:R:3 config_type=Fe13Si1B1 REF_energy=-111.86184603 MACE_energy=-56.02676150873984 pbc="T T T"
B        1.50863000       1.78767000       4.90152000      -0.44122900      -0.13378600       0.30200900       0.09978441      -0.47233071       0.24567496
Si       4.79549000       2.24346000       2.10133000      -2.02834800      -2.06166200      -2.37230900      -0.57695345      -0.67298332      -1.43035692
Fe       3.20380000       0.75276000       3.12970000      -0.26094900      -0.46491400       0.88121400       0.17107864       0.16361735       1.59739041
Fe       2.86828000       3.52346000       0.83472000       0.63525800      -0.40693500      -0.10677300       0.29181894      -0.82698237      -0.52116101
Fe       0.30208000       0.41203000       3.59178000       0.43152100       1.99959300       0.71104900       0.30273323       1.77743853      -0.00269744
Fe       4.64149000       4.82814000       4.64319000      -2.32204000      -0.32641000       1.26424000      -2.60663800       0.30013121       0.88234266
Fe       1.38623000       5.04883000       1.95913000       0.13404600      -0.76597900       0.26900800       0.35992870      -1.03961657       0.50559033
Fe       0.01651000       0.69762000       0.56316000       0.43357300       0.50429600      -0.59615700       0.41176347       0.82010173      -0.38335016
Fe       1.71843000       1.81951000       1.96274000      -0.50569400       0.44278300      -1.08150200      -1.59450020       0.62518640      -0.72510755
Fe       2.49328000       3.31853000       3.75571000       0.60663900       0.53722000       0.22889400       0.56155053       0.09711966       0.49699890
Fe       0.35204000       3.39611000       0.17394000       0.28417100      -0.58935200       0.45847800       0.44449158      -0.86643987       1.15313302
Fe       0.11270000       3.44811000       3.40342000       2.52442400       0.78461300       1.86263000       1.48787547      -0.22097772       0.26925608
Fe       4.37430000       4.86511000       1.96411000       0.02203300      -0.44143500      -0.21812100       0.96618414      -0.72197991       0.14686514
Fe       1.91304000       5.29856000       5.45252000       0.85584700       1.12077600      -1.36953800       0.64858024       0.97616009      -1.96245991
Fe       3.73798000       1.56980000       5.38787000      -0.36925300      -0.19880800      -0.23312100      -0.96769770       0.06155550      -0.27211852
15
Lattice="5.664536 0.0 0.0 0.0 5.664536 0.0 0.0 0.0 5.664536" Properties=species:S:1:pos:R:3:REF_forces:R:3:MACE_forces:R:3 config_type=Fe13Si1B1 REF_energy=-121.96103282 MACE_energy=-56.13433383141386 pbc="T T T"
B        1.89945000       0.62627000       3.85277000      -2.50069800       2.16966800      -1.53918900      -1.56818113       1.53414113       0.17200296
Si       0.20120000       2.04269000       2.64503000       1.02931600      -0.66199100      -2.72694900       0.20179754      -0.34783350      -1.23107831
Fe       2.66066000       5.42797000       2.26357000       0.53979700      -0.03646200      -1.31830900       0.48277407      -0.60458304      -0.81116538
Fe       2.90276000       2.67008000       2.15492000      -1.83815700      -0.38139400      -2.84113500      -1.77386159       0.15194391      -1.28609352
Fe       3.76617000       1.41579000       3.61058000       1.59818700      -1.99316500       0.96094000       1.85854732      -0.75134918       0.53163862
Fe       4.35629000       3.78643000       3.20548000      -0.08184500       1.05317100       0.76552100      -0.29381219       0.44467289       0.69481065
Fe       4.47628000       4.06991000       0.64852000      -0.83953300      -0.22453300       0.86736600      -1.09049660       0.01338766       0.18314258
Fe       4.19523000       1.12987000       0.84517000       0.20926900       0.78044000      -1.95195400       0.46812061       0.07003227      -0.62817329
Fe       1.20944000       0.98558000       0.54562000       0.36331500       0.64694800       1.15320100       0.43416866       0.61823548       0.35121845
Fe       2.93679000       5.24715000       4.85612000       1.78737200      -1.05335100       3.04321700       0.41680442      -0.28537439       1.02037922
Fe       2.46429000       3.02068000       4.78866000      -0.08418600      -0.93215200       0.71303400       0.01242023      -1.00861122       0.07173202
Fe       5.64539000       2.77685000       4.69631000       0.33002600      -0.76378800       3.33994500       0.51910845      -0.64690503       1.30382630
Fe       1.14045000       3.92385000       0.99225000      -0.27335200       0.02348800       0.25089500       0.19979134       0.12757503      -0.36905444
Fe       0.17432000       5.38924000       4.59788000      -0.87103600      -0.20642700       0.99417600      -0.61667484      -0.48827839       0.63162991
Fe       5.41134000       5.44443000       2.36685000       0.63152700       1.57954900      -1.71076000       0.74949370       1.17294639      -0.63481577
15
Lattice="5.664536 0.0 0.0 0.0 5.664536 0.0 0.0 0.0 5.664536" Properties=species:S:1:pos:R:3:REF_forces:R:3:MACE_forces:R:3 config_type=Fe13Si1B1 REF_energy=-109.57699008 MACE_energy=-55.81107756101012 pbc="T T T"
B        1.60964000       1.20953000       3.30762000      -0.01479600      -0.54483200       0.36412700      -0.09086195       0.00886954      -0.03121954
Si       1.95419000       3.78303000       0.40477000       2.58923000       0.78612200      -1.61162900       1.36740356       0.01173585      -0.37251295
Fe       3.57229000       4.89724000       1.78218000      -0.69680300       0.94883800       2.04020100      -0.78454108       0.46285573       0.94696229
Fe       3.21513000       2.00319000       1.86162000       1.30615200      -1.04311700      -1.34636300       0.73809098      -0.60981835      -0.41541685
Fe       5.12136000       1.05340000       3.05836000       0.48907600      -0.57242700       0.35981000       0.76416722      -0.95368094       0.47193496
Fe       5.33303000       3.41064000       3.19935000      -1.19050900       0.64225800       0.16946300      -0.73954101       0.50510513      -0.06890475
Fe       4.69645000       3.56410000       0.59057000       0.42357200      -2.45414500       1.39631500       0.97116123      -1.74959524       0.87684969
Fe       5.00397000       0.79608000       0.67759000       0.28054300       1.18762000       0.69531900      -0.42058244       0.28808113       0.13540390
Fe       1.02131000       2.39370000       1.67631000      -1.48205000      -1.99677700       1.89497700      -0.77898319      -0.48891885       0.72845530
Fe       4.49205000       4.87623000       4.87240000      -1.22864200       1.13873400      -2.26444700      -1.08643499       0.83697251      -1.42990925
Fe       3.40200000       1.47027000       4.46233000      -0.01871000      -0.18409200       0.67173000       0.00227678      -0.66620614       0.93173265
Fe       0.59504000       2.14210000       5.17631000       0.66645200      -0.32293300      -3.32851400       1.05608346      -0.09823654      -2.74200068
Fe       1.14446000       5.07983000       4.43636000      -0.37358200       1.06798600      -0.87155500      -0.24355857       0.75133764      -0.55506270
Fe       2.52599000       3.18146000       3.48749000      -0.80261000       1.79870400       1.25168000      -1.20032286       1.95278610       0.77785281
Fe       0.91985000       5.18762000       1.86613000       0.05267700      -0.45193900       0.57888600       0.44564286      -0.25128757       0.74583513
15
Lattice="5.664536 0.0 0.0 0.0 5.664536 0.0 0.0 0.0 5.664536" Properties=species:S:1:pos:R:3:REF_forces:R:3:MACE_forces:R:3 config_type=Fe13Si1B1 REF_energy=-111.24757227 MACE_energy=-56.56480759900853 pbc="T T T"
B        2.53656000       2.62317000       3.66583000      -0.11566700      -0.22978700       0.53017200       0.20837075       0.41059640       0.54149471
Si       0.67483000       4.27329000       2.69225000       0.92910600       0.68145900       0.71622000       0.90312264       0.07416289       0.10057570
Fe       5.14560000       5.37767000       1.05479000      -0.04263700       0.54874800      -0.34508500      -0.38686880       0.22851464       0.26616566
Fe       5.17725000       2.96978000       1.28337000      -0.94481700       0.15150400      -1.65556500      -1.07999002       0.39745551      -0.95067326
Fe       4.74580000       3.13666000       4.02461000      -0.25444200      -0.82574700      -0.11998600      -0.27917210      -0.62515371      -0.77721686
Fe       0.33821000       1.51110000       2.57588000       1.22080500      -1.49602800       0.46012600       1.63891667      -0.79220559       0.82378407
Fe       3.09808000       4.41167000       2.55098000       1.58954700      -0.62340300      -0.59486000       1.57805205      -1.06102029      -0.24758688
Fe       4.73088000       0.16933000       4.32731000       1.21238200      -0.98254900      -0.92008400       0.69721722      -1.18689488      -0.96325231
Fe       3.65998000       1.37781000       0.06620000      -0.53114300       0.39644200       0.40797800      -0.67130716       1.40696807      -0.49485117
Fe       3.63898000       1.27668000       2.55773000      -0.56432500       0.60761700      -1.09420600      -0.27869892       0.25074843      -0.77734584
Fe       3.30156000       4.03302000       5.51710000       0.66273100       0.68309200      -0.51252300       0.78551277       0.50613615      -0.76734720
Fe       2.04972000       2.93776000       1.03536000      -1.23701100      -0.98796000       1.66434700      -1.13652517      -0.85623761       1.97950804
Fe       2.16302000       5.60665000       3.99134000      -0.76618900       1.59088200       1.80303200      -0.64499498       1.26719994       0.95898014
Fe       0.95543000       1.84266000       4.95473000       0.27866900      -0.07002100       0.06014100      -0.06153982      -0.42826714       0.12627043
Fe       2.02568000       0.02468000       0.99960000      -1.43701000       0.55575000      -0.39970700      -1.27209514       0.40799720       0.18149477
15
Lattice="5.664536 0.0 0.0 0.0 5.664536 0.0 0.0 0.0 5.664536" Properties=species:S:1:pos:R:3:REF_forces:R:3:MACE_forces:R:3 config_type=Fe13Si1B1 REF_energy=-108.79062395 MACE_energy=-55.45161298498263 pbc="T T T"
B        5.36400000       3.87568000       4.45905000       0.44648400       0.57032200       0.28604800       0.09951587       0.59236283      -0.24961806
Si       3.93387000       4.96403000       3.15711000      -4.30606800      -2.31482200      -2.68264300      -1.36735452      -0.97560097      -1.23138436
Fe       3.00216000       0.92096000       1.44117000      -0.76996800       0.42082500      -0.07835300      -0.15736801       0.13373238       0.07935014
Fe       1.34518000       5.62588000       2.73234000       2.41172500       0.19969700       0.20083700       2.19942774      -0.58734163       0.61256681
Fe       0.44730000       2.09377000       4.98703000       1.17940300       0.68255400       0.66504100       1.24970350       0.55546195      -0.30639881
Fe       0.30923000       3.79563000       2.39919000      -0.97580900      -1.20085800      -1.00234600      -0.81823140       0.25402242      -0.11475610
Fe       0.18648000       1.06356000       1.31692000      -0.60348600       1.79501500       0.12312700      -0.24591772       1.32654731       0.34628276
Fe       4.00265000       2.83038000       0.00570000       0.03088500      -0.70677300      -0.45368100       0.15068537      -0.60261846      -0.25755429
Fe       5.37135000       0.30945000       4.05759000       2.43746500       1.21842000       2.05861100      -0.52213698      -0.20556388       0.84105688
Fe       2.32985000       3.12186000       1.52540000       0.40818200       0.55373600       0.67629300      -0.14544206       0.82153386       0.42756239
Fe       2.77320000       0.82160000       4.63749000       0.11143500       0.28254000       0.06072400       0.58929228       0.25837806      -0.46881286
Fe       1.20304000       4.94889000       5.64649000       0.50304000      -0.54997900       0.60819900      -0.40849486      -0.03000718       1.02961974
Fe       4.43330000       2.29054000       2.94368000      -1.10290800       0.42652200       0.72577900      -1.03076463       0.37174763       1.29382940
Fe       4.45738000       5.14386000       0.73674000       0.07827300      -0.88309100      -1.20270400       0.35203279      -1.75355157      -1.08964855
Fe       2.20236000       3.55424000       4.11335000       0.15134500      -0.49410700       0.01507000       0.05505264      -0.15910274      -0.91209508
15
Lattice="5.664536 0.0 0.0 0.0 5.664536 0.0 0.0 0.0 5.664536" Properties=species:S:1:pos:R:3:REF_forces:R:3:MACE_forces:R:3 config_type=Fe13Si1B1 REF_energy=113.06017811 MACE_energy=-54.98017742886782 pbc="T T T"
B        1.39848000       0.19193000       0.61048000      -4.08297800       9.29302800       8.69098400       0.52080027       0.75672338       1.32090958
Si       2.92490000       2.16030000       2.14060000      -2.63496600       9.58037000      -0.49561900       0.08369724      -0.42499047       0.26937900
Fe       2.86073000       2.70503000       5.26584000       4.32356800      10.20896900      -4.70309300       1.28627397      -1.30560775      -0.74441150
Fe       4.47802000       3.64784000       3.04881000      -8.75739200       8.66530300      12.20431400      -0.25754460       0.02057451       2.40922737
Fe       0.21576000       2.05514000       5.23160000     -18.24380600     -12.70694800      22.88283100       2.03940654       0.18535003      -0.49161122
Fe       0.44166000       2.36030000       2.32519000       9.91181000      13.04098500      -5.34425400       0.93510284      -0.63993844      -0.48669551
Fe       2.03954000       3.82953000       1.07367000      -9.51630500       5.90074000      24.04305300      -1.70104883       1.24382306       0.68378839
Fe       1.39295000       3.86962000       3.86875000       5.08493300      -5.56046400     -11.44166200       0.56612480      -0.29759465      -0.36999668
Fe       4.42805000       1.04262000       3.76613000      10.93879500       4.90624100      -3.25114800      -0.75247222       1.16563731       0.17501250
Fe       4.44753000       1.10914000       0.85325000      15.14670800      12.45203200      -7.47268500      -0.21779000      -0.10719246       0.51800459
Fe       3.06886000       5.29358000       5.21060000      31.03933500     -34.73641400       1.35306500       0.31125842      -0.56525265      -0.40136178
Fe       4.80801000       3.61880000       0.94850000       7.81841300       1.86551900       0.92546600      -1.62486863       0.09991935      -0.58864886
Fe       0.75179000       0.26400000       3.08937000     -19.58866100       1.56533600      18.55626500       0.84912700      -0.36706174      -0.65765776
Fe       3.22665000       5.43114000       2.39493000      -7.30714900       7.24190400      -9.20324300      -1.50799378      -0.02267115      -0.63706106
Fe       0.02250000       5.10600000       5.27962000     -14.13230600     -31.71660300     -46.74427400      -0.53007300       0.25828167      -0.99887707
15
Lattice="5.664536 0.0 0.0 0.0 5.664536 0.0 0.0 0.0 5.664536" Properties=species:S:1:pos:R:3:REF_forces:R:3:MACE_forces:R:3 config_type=Fe13Si1B1 REF_energy=-108.9830283 MACE_energy=-55.27179461901034 pbc="T T T"
B        0.13992000       2.30465000       0.77632000      -2.78401400      -0.82058500       0.46110900      -1.57238699      -0.99391295       0.77379951
Si       2.50353000       2.08237000       3.22653000       0.57446500       0.76610200      -0.17485000       0.22828970       0.40350459      -0.31889058
Fe       1.09387000       3.72736000       2.17845000      -2.33299800      -0.65384800       2.12861500      -1.59466008      -0.73379379       0.50778541
Fe       3.95659000       1.68198000       5.11388000       0.36857700       0.27726400       0.90410800       0.50669311       0.16392637       1.32273775
Fe       3.24055000       0.05102000       1.45794000       1.85872300       1.81044900       1.22583000       0.45596987       1.44082465       0.96934871
Fe       1.11690000       0.40651000       2.78471000       0.23956900      -0.40930100      -0.23173800       0.38382516       0.18103090      -0.37343018
Fe       4.54933000       5.58716000       3.59286000      -0.31901000      -1.37235600       0.15251700       0.29027860      -1.02344723      -0.10522865
Fe       2.02209000       2.17177000       0.81391000       2.28654300       0.57567400       0.95002900       0.76833477       0.04393824       1.01826643
Fe       2.49600000       4.37528000       3.91048000       1.01885200       0.91593900      -0.12431400      -0.05512429      -0.11996567       0.06422617
Fe       1.55562000       0.82810000       4.97050000      -1.41574600      -0.55119900      -1.41023600      -0.33835722       0.36625830      -0.52020398