15
Lattice="5.664536 0.0 0.0 0.0 5.664536 0.0 0.0 0.0 5.664536" Properties=species:S:1:pos:R:3:REF_forces:R:3:MACE_forces:R:3 config_type=Fe13Si1B1 REF_energy=-108.19731369 MACE_energy=-45.70412189039802 pbc="T T T"
B        4.05901000       2.70568000       1.01305000      -1.63855300      -0.82904000       0.73367400      -0.11024800      -0.06347756      -0.03510752
Si       2.82856000       0.10655000       3.62968000      -1.37485700       1.04288500       1.12851000      -0.20541033       0.13229906       0.30182354
Fe       2.58297000       1.18377000       1.20948000       0.93367000       0.14656100       0.38941200       0.51129215      -0.25465276      -0.09837759
Fe       0.38153000       0.68989000       3.08804000       0.88723900       3.84366500       0.15858400       0.09912839       0.55146132       0.29542893
Fe       1.54589000       2.38203000       4.72041000      -2.07199500      -0.40415400      -0.21731400      -0.53422552      -0.35284340       0.00955796
Fe       0.00965000       3.55673000       0.57847000       1.87002200       0.46818400      -0.57360300       0.00480194       0.09213304       0.18496524
Fe       4.86453000       2.71686000       2.75028000       1.57660800      -1.70083300       1.51404400       0.10528524      -0.08036618       0.28907273
Fe       4.62966000       0.98828000       5.06676000       0.07922500       1.31640700       1.29952100      -0.26422361       0.25936316      -0.03208335
Fe       0.62475000       4.47163000       2.76945000       1.95380600      -3.21231900      -1.53544400       0.44923028      -0.38524056      -0.54008672
Fe       4.87774000       4.67993000       4.41653000      -0.64493200      -0.53503200       0.30435400      -0.25324727      -0.13465563      -0.32914905
Fe       3.59664000       2.87221000       4.83153000       0.23532500      -0.37357900      -1.60523300       0.28245474       0.20361249      -0.20881156
Fe       0.66156000       0.50203000       0.73880000      -0.79576700      -0.85035100      -0.29863700      -0.21885590      -0.40965571       0.01117319
Fe       2.16986000       4.37529000       0.15492000      -0.00013300       0.94038800       0.69583500       0.13468320       0.28951917       0.20192195
Fe       3.84648000       4.71531000       2.05312000       0.75417200       0.77170900      -2.19861800       0.47315438       0.14797458      -0.38482771
Fe       2.60819000       2.98871000       2.55518000      -1.76382900      -0.62449100       0.20491400      -0.47381970       0.00452898       0.33449996
15
Lattice="5.664536 0.0 0.0 0.0 5.664536 0.0 0.0 0.0 5.664536" Properties=species:S:1:pos:R:3:REF_forces:R:3:MACE_forces:R:3 config_type=Fe13Si1B1 REF_energy=-108.15566798 MACE_energy=-45.839108760958105 pbc="T T T"
B        4.14873000       2.95379000       1.06658000       0.16200100      -0.29917000      -0.39394100       0.06176193      -0.09851387      -0.20606829
Si       3.70970000       1.75376000       4.70342000       2.39954500       1.99334400       0.69658000       0.21871161       0.38713289      -0.04766926
Fe       0.77141000       5.48369000       0.61772000       0.15863900      -0.70463600       0.73580300       0.26367351      -0.29229970      -0.07441470
Fe       2.70222000       5.62328000       2.66112000      -2.84701800       1.11988600      -2.77526600      -0.67817148       0.58793913      -0.45429905
Fe       2.40590000       1.49012000       0.76033000       2.44811900      -1.09619800       2.05304000       0.58232416      -0.37397397       0.21878144
Fe       0.05981000       0.25678000       4.08407000      -0.72088300      -0.40435400      -1.12965000      -0.13690314       0.09235022      -0.14389313
Fe       2.69016000       5.46683000       4.60121000      -0.81406600      -1.20768000       2.79556400      -0.26857199      -0.06774636       0.51140712
Fe       1.47386000       1.76151000       4.03878000       0.25632200       2.31886200      -0.70750300       0.45743282       0.39316939       0.08617775
Fe       5.58209000       3.47185000       2.53703000       2.04828400       0.56513400      -0.37619200       0.53358868       0.02349849       0.15097116
Fe       2.39981000       3.74553000       0.37431000      -0.23425500       0.56240000       0.37900500       0.08304258      -0.02074892       0.12909165
Fe       4.35312000       1.55651000       2.64463000       0.99871600      -1.26274600      -2.03362100       0.12548338      -0.31366735      -0.44963795
Fe       4.71996000       4.32124000       4.97431000      -0.09930100      -2.16645100       0.36829600      -0.32411442      -0.66288173      -0.01450798
Fe       4.35696000       5.05523000       1.41829000       0.42683500       0.31250100      -0.90165400      -0.03043888       0.20057216      -0.18141203
Fe       0.47139000       2.05266000       0.60057000      -2.75315200       0.98470800      -0.10508100      -0.57215071       0.47020463      -0.04441231
Fe       3.41003000       3.62129000       2.91823000      -1.42978400      -0.71560000       1.39462200      -0.31566807      -0.32503500       0.51988557
15
Lattice="5.664536 0.0 0.0 0.0 5.664536 0.0 0.0 0.0 5.664536" Properties=species:S:1:pos:R:3:REF_forces:R:3:MACE_forces:R:3 config_type=Fe13Si1B1 REF_energy=-107.93807169 MACE_energy=-45.3705015560075 pbc="T T T"
B        3.89991000       3.42526000       0.45422000       0.11547000      -0.03553900       1.12451100       0.19089752       0.00428438       0.30442559
Si       3.48762000       0.16630000       4.61337000       0.32574800       0.46308000      -0.01786500      -0.16754867       0.10081607       0.09472074
Fe       2.84778000       1.82037000       0.82228000      -0.98232500      -1.42221600      -1.89337000      -0.49589721      -0.10641520      -0.80766429
Fe       1.34857000       0.81784000       2.30075000      -0.53643500       0.46265000      -1.19653800      -0.07435124      -0.07419991      -0.70322496
Fe       1.57642000       1.26355000       4.33118000       0.04619000       0.17232100       0.29400800       0.43265748      -0.18454893       0.50328977
Fe       0.65713000       2.94926000       0.95396000      -1.72120200      -1.22782100       0.66296100      -0.34166558      -0.33638299       0.09007410
Fe       4.05988000       1.97076000       2.38888000       1.24013900      -1.25976700       1.55714700       0.31624108      -0.35996912       0.38294093
Fe       5.41523000       1.91313000       4.86891000      -2.57043500      -0.52568200      -0.40262900      -0.93528849       0.05508571      -0.05086631
Fe       1.35795000       4.61467000       3.62292000      -1.17710100      -0.19986100       1.26666800      -0.30463210       0.29096334       0.54334045
Fe       4.95776000       4.27854000       4.85033000       2.20080800       0.77958800      -0.24901600       0.39463892      -0.18644486       0.18296266
Fe       2.90817000       3.15860000       4.25698000      -0.87756600      -0.39846100       1.25184100       0.14300290      -0.22184546       0.22582113
Fe       4.97903000       5.64594000       1.36431000      -0.69131800      -0.04726100      -0.44322300      -0.17559856       0.16239916      -0.20881698
Fe       1.21860000       5.04312000       0.28941000      -0.01329800       1.97019200      -1.42146800       0.05060688       0.56209440      -0.55994834
Fe       4.19049000       3.99341000       2.69223000       2.99720200       1.59092800      -0.45710200       0.47129116       0.51409613      -0.01280575
Fe       2.24232000       4.14646000       1.80095000       1.64412400      -0.32215200      -0.07592500       0.49564589      -0.21993273       0.01575126
15
Lattice="5.664536 0.0 0.0 0.0 5.664536 0.0 0.0 0.0 5.664536" Properties=species:S:1:pos:R:3:REF_forces:R:3:MACE_forces:R:3 config_type=Fe13Si1B1 REF_energy=-111.97852358 MACE_energy=-46.620519077773324 pbc="T T T"
B        0.06916000       5.66432000       5.18689000       0.12008200      -0.64043800       0.01360000       0.02877587      -0.19002272      -0.01083683
Si       0.02740000       2.72248000       2.59682000      -0.95092500       0.36379500       0.29566700      -0.31758853       0.13694280       0.05661593
Fe       0.14116000       5.54768000       2.85133000       0.08282300      -0.00674100       0.52027800      -0.26015599       0.10230061      -0.05500909
Fe       5.56722000       2.97052000       5.53670000      -0.67309900       0.24460700       0.18564600      -0.06596280      -0.10947508       0.17404822
Fe       2.56501000       0.00405000       5.40440000       0.68434000      -0.27592000       0.60718700       0.40850428      -0.05966497       0.36590308
Fe       2.97079000       2.77487000       5.60913000       0.61990200      -0.30745300       0.59180600       0.01027461      -0.04941629       0.08289888
Fe       3.14055000       2.58779000       2.39876000      -0.26535600       0.46856000       0.15364600       0.08031623       0.12162200      -0.07203638
Fe       1.27023000       1.29362000       1.29220000       0.59662900      -0.36144800      -0.82067800      -0.03553368       0.06224473      -0.29365647
Fe       1.26884000       1.40412000       4.24821000      -0.00500300       0.79776500      -0.57479700      -0.12091289       0.54920479      -0.10221955
Fe       1.43809000       4.26211000       1.36341000       0.07769500      -0.05884300      -0.22592600       0.07462461      -0.20012842      -0.03537342
Fe       1.52070000       4.14480000       4.13170000      -0.18321100      -0.27105400      -0.71528600      -0.10381054      -0.42092919      -0.17148277
Fe       4.46936000       1.09579000       0.98330000      -0.11971100       0.01004100       0.24750400       0.11884893       0.23767512      -0.02794127
Fe       4.16783000       1.22547000       4.11325000       0.42899800      -0.08684700      -0.08842400       0.28042480       0.07251470       0.12799947
Fe       4.22673000       4.46813000       1.30140000       0.09689500      -0.37725000      -0.41990000       0.01351684      -0.26556668       0.03352566
Fe       4.20815000       4.21553000       4.01300000      -0.51005900       0.50122500       0.22967700      -0.11132176       0.01269860      -0.07243547
15
Lattice="5.664536 0.0 0.0 0.0 5.664536 0.0 0.0 0.0 5.664536" Properties=species:S:1:pos:R:3:REF_forces:R:3:MACE_forces:R:3 config_type=Fe13Si1B1 REF_energy=-111.93959828 MACE_energy=-46.55253571822324 pbc="T T T"
B        0.52210000       0.05440000       5.04153000      -0.83789800      -0.96014800      -0.42271900      -0.08748701      -0.18676898      -0.16826163
Si       5.59498000       2.75302000       2.63746000      -0.41285400      -0.16722200       0.32382300      -0.06097056      -0.11107088      -0.12989225
Fe       0.17766000       0.05624000       2.77011000      -0.22089500       0.44737300       1.17937900      -0.21204830       0.01253709       0.26477778
Fe       5.59682000       2.78032000       5.61495000      -0.22239300       0.41310500      -0.03657000      -0.07561833       0.19429604      -0.07472079
Fe       2.71989000       5.37982000       5.43745000       0.17724800       0.17436200       0.47840000      -0.05895645       0.38185704       0.16643477
Fe       2.70157000       2.72483000       5.65192000       0.89303700       0.73165300       0.81071700       0.11146364       0.20927270       0.19819062
Fe       2.97278000       2.68063000       2.60608000       0.64664100       0.39382500      -0.89779500       0.38763341       0.24211774      -0.35007447
Fe       1.04462000       1.15381000       0.98518000       0.85892600      -0.28038300       0.02628300       0.21729341      -0.01120639       0.03679315
Fe       1.65813000       1.50296000       3.98982000      -0.38663100      -0.26210300      -0.11433700      -0.22180534       0.03386065       0.18779236
Fe       1.30631000       4.30849000       1.24352000      -0.41412900       0.11159100       0.24697100      -0.25289790      -0.15948719       0.13915578
Fe       1.58576000       4.06734000       3.99489000      -1.17533100      -0.00634600      -0.85725300      -0.37499162      -0.34789893      -0.23791672
Fe       4.12820000       1.13618000       1.10587000       0.62554700       0.31979100       0.22031500       0.30129494       0.18036447       0.00364592
Fe       4.25787000       1.24949000       4.17529000      -0.08913900      -0.07677300       0.23295600      -0.06228220       0.06895626       0.16489863
Fe       4.35495000       4.45297000       1.34581000      -0.13361000      -0.53467800      -0.51744000       0.11453087      -0.35898487      -0.07531125
Fe       4.41108000       4.43949000       4.32316000       0.69148200      -0.30404700      -0.67272800       0.27484145      -0.14784475      -0.12551189
15
Lattice="5.664536 0.0 0.0 0.0 5.664536 0.0 0.0 0.0 5.664536" Properties=species:S:1:pos:R:3:REF_forces:R:3:MACE_forces:R:3 config_type=Fe13Si1B1 REF_energy=-111.86184603 MACE_energy=-46.062408335543466 pbc="T T T"
B        1.50863000       1.78767000       4.90152000      -0.44122900      -0.13378600       0.30200900      -0.00542378      -0.11179682       0.05082341
Si       4.79549000       2.24346000       2.10133000      -2.02834800      -2.06166200      -2.37230900      -0.13974552      -0.29314292      -0.59023362
Fe       3.20380000       0.75276000       3.12970000      -0.26094900      -0.46491400       0.88121400       0.22556308       0.00663673       0.43812298
Fe       2.86828000       3.52346000       0.83472000       0.63525800      -0.40693500      -0.10677300       0.00879129      -0.25306248      -0.07204404
Fe       0.30208000       0.41203000       3.59178000       0.43152100       1.99959300       0.71104900       0.11458082       0.41788251      -0.07025205
Fe       4.64149000       4.82814000       4.64319000      -2.32204000      -0.32641000       1.26424000      -0.81014921       0.17876731       0.28587593
Fe       1.38623000       5.04883000       1.95913000       0.13404600      -0.76597900       0.26900800       0.04797600      -0.28370997       0.11976527
Fe       0.01651000       0.69762000       0.56316000       0.43357300       0.50429600      -0.59615700       0.05832857       0.15472563      -0.02224407
Fe       1.71843000       1.81951000       1.96274000      -0.50569400       0.44278300      -1.08150200      -0.70915167       0.15509708      -0.11112778
Fe       2.49328000       3.31853000       3.75571000       0.60663900       0.53722000       0.22889400       0.03601024       0.02591686       0.09637790
Fe       0.35204000       3.39611000       0.17394000       0.28417100      -0.58935200       0.45847800       0.21560493      -0.11065130       0.35623096
Fe       0.11270000       3.44811000       3.40342000       2.52442400       0.78461300       1.86263000       0.60177018       0.22078753       0.06620742
Fe       4.37430000       4.86511000       1.96411000       0.02203300      -0.44143500      -0.21812100       0.52051975      -0.21346500       0.15212429
Fe       1.91304000       5.29856000       5.45252000       0.85584700       1.12077600      -1.36953800       0.09636621       0.13105790      -0.57624740
Fe       3.73798000       1.56980000       5.38787000      -0.36925300      -0.19880800      -0.23312100      -0.26104088      -0.02504306      -0.12337920
15
Lattice="5.664536 0.0 0.0 0.0 5.664536 0.0 0.0 0.0 5.664536" Properties=species:S:1:pos:R:3:REF_forces:R:3:MACE_forces:R:3 config_type=Fe13Si1B1 REF_energy=-121.96103282 MACE_energy=-46.10229187073091 pbc="T T T"
B        1.89945000       0.62627000       3.85277000      -2.50069800       2.16966800      -1.53918900      -0.21327657       0.19523808       0.12425964
Si       0.20120000       2.04269000       2.64503000       1.02931600      -0.66199100      -2.72694900      -0.07153390      -0.11245442      -0.50022866
Fe       2.66066000       5.42797000       2.26357000       0.53979700      -0.03646200      -1.31830900       0.24254298      -0.18533199      -0.18500218
Fe       2.90276000       2.67008000       2.15492000      -1.83815700      -0.38139400      -2.84113500      -0.58480573       0.19718560      -0.59033686
Fe       3.76617000       1.41579000       3.61058000       1.59818700      -1.99316500       0.96094000       0.69488004      -0.17768502       0.17586552
Fe       4.35629000       3.78643000       3.20548000      -0.08184500       1.05317100       0.76552100      -0.19463446       0.10065424       0.26263255
Fe       4.47628000       4.06991000       0.64852000      -0.83953300      -0.22453300       0.86736600      -0.24779588       0.11085295       0.10101981
Fe       4.19523000       1.12987000       0.84517000       0.20926900       0.78044000      -1.95195400       0.12336778      -0.13281436       0.04150308
Fe       1.20944000       0.98558000       0.54562000       0.36331500       0.64694800       1.15320100       0.00063565       0.05022510       0.21611579
Fe       2.93679000       5.24715000       4.85612000       1.78737200      -1.05335100       3.04321700       0.09155262       0.10163201       0.09311166
Fe       2.46429000       3.02068000       4.78866000      -0.08418600      -0.93215200       0.71303400      -0.03763708      -0.18370363      -0.06091409
Fe       5.64539000       2.77685000       4.69631000       0.33002600      -0.76378800       3.33994500       0.24499020      -0.03869532       0.56313321
Fe       1.14045000       3.92385000       0.99225000      -0.27335200       0.02348800       0.25089500       0.02870585       0.06927359      -0.08843406
Fe       0.17432000       5.38924000       4.59788000      -0.87103600      -0.20642700       0.99417600      -0.24406036      -0.43984200       0.26150768
Fe       5.41134000       5.44443000       2.36685000       0.63152700       1.57954900      -1.71076000       0.16706885       0.44546517      -0.41423310
15
Lattice="5.664536 0.0 0.0 0.0 5.664536 0.0 0.0 0.0 5.664536" Properties=species:S:1:pos:R:3:REF_forces:R:3:MACE_forces:R:3 config_type=Fe13Si1B1 REF_energy=-109.57699008 MACE_energy=-45.96651764487881 pbc="T T T"
B        1.60964000       1.20953000       3.30762000      -0.01479600      -0.54483200       0.36412700       0.00687223      -0.05723553      -0.00597838
Si       1.95419000       3.78303000       0.40477000       2.58923000       0.78612200      -1.61162900       0.48898973       0.07121190      -0.11105874
Fe       3.57229000       4.89724000       1.78218000      -0.69680300       0.94883800       2.04020100      -0.33940395       0.21452610       0.28471419
Fe       3.21513000       2.00319000       1.86162000       1.30615200      -1.04311700      -1.34636300       0.49209076      -0.24598427      -0.26870105
Fe       5.12136000       1.05340000       3.05836000       0.48907600      -0.57242700       0.35981000       0.20786255      -0.20171713      -0.05185239
Fe       5.33303000       3.41064000       3.19935000      -1.19050900       0.64225800       0.16946300      -0.10171432       0.25479579      -0.00645302
Fe       4.69645000       3.56410000       0.59057000       0.42357200      -2.45414500       1.39631500       0.35218047      -0.81497156       0.44067637
Fe       5.00397000       0.79608000       0.67759000       0.28054300       1.18762000       0.69531900      -0.23184603       0.19209301       0.33879292
Fe       1.02131000       2.39370000       1.67631000      -1.48205000      -1.99677700       1.89497700      -0.47650136      -0.22436260       0.34792555
Fe       4.49205000       4.87623000       4.87240000      -1.22864200       1.13873400      -2.26444700      -0.20762423       0.40659679      -0.60085454
Fe       3.40200000       1.47027000       4.46233000      -0.01871000      -0.18409200       0.67173000       0.17444825      -0.38672958       0.30296942
Fe       0.59504000       2.14210000       5.17631000       0.66645200      -0.32293300      -3.32851400       0.19417491       0.13731183      -0.81862805
Fe       1.14446000       5.07983000       4.43636000      -0.37358200       1.06798600      -0.87155500      -0.14541291       0.01407438      -0.37757683
Fe       2.52599000       3.18146000       3.48749000      -0.80261000       1.79870400       1.25168000      -0.43723071       0.74485307       0.22555139
Fe       0.91985000       5.18762000       1.86613000       0.05267700      -0.45193900       0.57888600       0.02311462      -0.10446221       0.30047314
15
Lattice="5.664536 0.0 0.0 0.0 5.664536 0.0 0.0 0.0 5.664536" Properties=species:S:1:pos:R:3:REF_forces:R:3:MACE_forces:R:3 config_type=Fe13Si1B1 REF_energy=-111.24757227 MACE_energy=-46.2377843270323 pbc="T T T"
B        2.53656000       2.62317000       3.66583000      -0.11566700      -0.22978700       0.53017200       0.03089113       0.09284553       0.11904904
Si       0.67483000       4.27329000       2.69225000       0.92910600       0.68145900       0.71622000       0.40401603       0.04628655      -0.03092313
Fe       5.14560000       5.37767000       1.05479000      -0.04263700       0.54874800      -0.34508500      -0.14713548       0.07167083       0.04991059
Fe       5.17725000       2.96978000       1.28337000      -0.94481700       0.15150400      -1.65556500      -0.36648210       0.17976474      -0.41170082
Fe       4.74580000       3.13666000       4.02461000      -0.25444200      -0.82574700      -0.11998600       0.06178390      -0.19549146      -0.36672616
Fe       0.33821000       1.51110000       2.57588000       1.22080500      -1.49602800       0.46012600       0.27873909      -0.34277127       0.39453977
Fe       3.09808000       4.41167000       2.55098000       1.58954700      -0.62340300      -0.59486000       0.47212024      -0.24905627      -0.27178814
Fe       4.73088000       0.16933000       4.32731000       1.21238200      -0.98254900      -0.92008400       0.17380204      -0.40096443      -0.28150148
Fe       3.65998000       1.37781000       0.06620000      -0.53114300       0.39644200       0.40797800      -0.19056338       0.53580075       0.22804450
Fe       3.63898000       1.27668000       2.55773000      -0.56432500       0.60761700      -1.09420600       0.03564549      -0.12441389      -0.36374388
Fe       3.30156000       4.03302000       5.51710000       0.66273100       0.68309200      -0.51252300       0.43510717       0.38175223      -0.14325855
Fe       2.04972000       2.93776000       1.03536000      -1.23701100      -0.98796000       1.66434700      -0.53702358      -0.28314149       0.64365690
Fe       2.16302000       5.60665000       3.99134000      -0.76618900       1.59088200       1.80303200      -0.09746755       0.42997048       0.48631456
Fe       0.95543000       1.84266000       4.95473000       0.27866900      -0.07002100       0.06014100      -0.15393875      -0.19533857      -0.05983681
Fe       2.02568000       0.02468000       0.99960000      -1.43701000       0.55575000      -0.39970700      -0.39949425       0.05308626       0.00796360
15
Lattice="5.664536 0.0 0.0 0.0 5.664536 0.0 0.0 0.0 5.664536" Properties=species:S:1:pos:R:3:REF_forces:R:3:MACE_forces:R:3 config_type=Fe13Si1B1 REF_energy=-108.79062395 MACE_energy=-45.83170001005248 pbc="T T T"
B        5.36400000       3.87568000       4.45905000       0.44648400       0.57032200       0.28604800      -0.00478769       0.06555336      -0.00823743
Si       3.93387000       4.96403000       3.15711000      -4.30606800      -2.31482200      -2.68264300      -0.59440186      -0.31888715      -0.49869498
Fe       3.00216000       0.92096000       1.44117000      -0.76996800       0.42082500      -0.07835300      -0.01469235       0.17340851       0.02615648
Fe       1.34518000       5.62588000       2.73234000       2.41172500       0.19969700       0.20083700       0.95098244      -0.08925624       0.25286706
Fe       0.44730000       2.09377000       4.98703000       1.17940300       0.68255400       0.66504100       0.36266513       0.27181403      -0.11860470
Fe       0.30923000       3.79563000       2.39919000      -0.97580900      -1.20085800      -1.00234600      -0.25262638       0.06678212      -0.08241844
Fe       0.18648000       1.06356000       1.31692000      -0.60348600       1.79501500       0.12312700      -0.08143623       0.42350516       0.04118237
Fe       4.00265000       2.83038000       0.00570000       0.03088500      -0.70677300      -0.45368100      -0.12580667      -0.18820761      -0.10945572
Fe       5.37135000       0.30945000       4.05759000       2.43746500       1.21842000       2.05861100      -0.21296587       0.03417823       0.36777067
Fe       2.32985000       3.12186000       1.52540000       0.40818200       0.55373600       0.67629300      -0.02846613       0.19217106       0.20433894
Fe       2.77320000       0.82160000       4.63749000       0.11143500       0.28254000       0.06072400       0.15737241       0.04550955      -0.03323705
Fe       1.20304000       4.94889000       5.64649000       0.50304000      -0.54997900       0.60819900      -0.12856193       0.11907589       0.34698621
Fe       4.43330000       2.29054000       2.94368000      -1.10290800       0.42652200       0.72577900      -0.28124243      -0.12520857       0.24894852
Fe       4.45738000       5.14386000       0.73674000       0.07827300      -0.88309100      -1.20270400       0.21476214      -0.63885531      -0.26342143
Fe       2.20236000       3.55424000       4.11335000       0.15134500      -0.49410700       0.01507000       0.03920542      -0.03158303      -0.37418049
15
Lattice="5.664536 0.0 0.0 0.0 5.664536 0.0 0.0 0.0 5.664536" Properties=species:S:1:pos:R:3:REF_forces:R:3:MACE_forces:R:3 config_type=Fe13Si1B1 REF_energy=113.06017811 MACE_energy=-45.948256842633945 pbc="T T T"
B        1.39848000       0.19193000       0.61048000      -4.08297800       9.29302800       8.69098400       0.02503330       0.16736859       0.22640704
Si       2.92490000       2.16030000       2.14060000      -2.63496600       9.58037000      -0.49561900       0.11510440      -0.22801660       0.09207804
Fe       2.86073000       2.70503000       5.26584000       4.32356800      10.20896900      -4.70309300       0.45657761      -0.35032489      -0.15426822
Fe       4.47802000       3.64784000       3.04881000      -8.75739200       8.66530300      12.20431400      -0.11854870      -0.08237390       0.70174000
Fe       0.21576000       2.05514000       5.23160000     -18.24380600     -12.70694800      22.88283100       0.63467684       0.09181746      -0.19560861
Fe       0.44166000       2.36030000       2.32519000       9.91181000      13.04098500      -5.34425400       0.36589714      -0.18211491      -0.20464108
Fe       2.03954000       3.82953000       1.07367000      -9.51630500       5.90074000      24.04305300      -0.46437736       0.43293613       0.33296945
Fe       1.39295000       3.86962000       3.86875000       5.08493300      -5.56046400     -11.44166200       0.05078050      -0.11862555       0.00402751
Fe       4.42805000       1.04262000       3.76613000      10.93879500       4.90624100      -3.25114800      -0.20378907       0.41402061       0.15854154
Fe       4.44753000       1.10914000       0.85325000      15.14670800      12.45203200      -7.47268500      -0.19551237       0.01451946       0.09724229
Fe       3.06886000       5.29358000       5.21060000      31.03933500     -34.73641400       1.35306500       0.26076915      -0.23399817      -0.13000598
Fe       4.80801000       3.61880000       0.94850000       7.81841300       1.86551900       0.92546600      -0.57675509      -0.25024200      -0.30145329
Fe       0.75179000       0.26400000       3.08937000     -19.58866100       1.56533600      18.55626500       0.29310167      -0.18313784      -0.03656555
Fe       3.22665000       5.43114000       2.39493000      -7.30714900       7.24190400      -9.20324300      -0.46337464       0.06623292      -0.23413801
Fe       0.02250000       5.10600000       5.27962000     -14.13230600     -31.71660300     -46.74427400      -0.17958337       0.44193869      -0.35632511
15
Lattice="5.664536 0.0 0.0 0.0 5.664536 0.0 0.0 0.0 5.664536" Properties=species:S:1:pos:R:3:REF_forces:R:3:MACE_forces:R:3 config_type=Fe13Si1B1 REF_energy=-108.9830283 MACE_energy=-45.95503738307256 pbc="T T T"
B        0.13992000       2.30465000       0.77632000      -2.78401400      -0.82058500       0.46110900      -0.25593059      -0.17133513       0.08041743
Si       2.50353000       2.08237000       3.22653000       0.57446500       0.76610200      -0.17485000      -0.00394810       0.25482535      -0.04507619
Fe       1.09387000       3.72736000       2.17845000      -2.33299800      -0.65384800       2.12861500      -0.41488975      -0.17870555       0.41582767
Fe       3.95659000       1.68198000       5.11388000       0.36857700       0.27726400       0.90410800      -0.11030237      -0.00837686       0.36563899
Fe       3.24055000       0.05102000       1.45794000       1.85872300       1.81044900       1.22583000       0.31995908       0.53997193       0.34555685
Fe       1.11690000       0.40651000       2.78471000       0.23956900      -0.40930100      -0.23173800       0.15655985      -0.16218188      -0.03392901
Fe       4.54933000       5.58716000       3.59286000      -0.31901000      -1.37235600       0.15251700       0.01038348      -0.29805297      -0.05545120
Fe       2.02209000       2.17177000       0.81391000       2.28654300       0.57567400       0.95002900       0.37050231       0.21346338       0.46372403
Fe       2.49600000       4.37528000       3.91048000       1.01885200       0.91593900      -0.12431400      -0.12514988       0.08574244       0.08003704
Fe       1.55562000       0.82810000       4.97050000      -1.41574600      -0.55119900      -1.41023600       0.02604766       0.02076678      -0.37784833