15
Lattice="5.664536 0.0 0.0 0.0 5.664536 0.0 0.0 0.0 5.664536" Properties=species:S:1:pos:R:3:REF_forces:R:3:MACE_forces:R:3 config_type=Fe13Si1B1 REF_energy=-108.19731369 MACE_energy=-63.37461359218376 pbc="T T T"
B        4.05901000       2.70568000       1.01305000      -1.63855300      -0.82904000       0.73367400      -1.81770103      -0.32567468       0.24748714
Si       2.82856000       0.10655000       3.62968000      -1.37485700       1.04288500       1.12851000      -0.97278622       0.59858499       0.64221690
Fe       2.58297000       1.18377000       1.20948000       0.93367000       0.14656100       0.38941200       1.99709481      -0.10530811      -0.27437215
Fe       0.38153000       0.68989000       3.08804000       0.88723900       3.84366500       0.15858400       0.48021225       1.84144324       0.52419069
Fe       1.54589000       2.38203000       4.72041000      -2.07199500      -0.40415400      -0.21731400      -1.70836179      -1.27811708      -0.26824658
Fe       0.00965000       3.55673000       0.57847000       1.87002200       0.46818400      -0.57360300       0.49196320       0.06547134       0.16223245
Fe       4.86453000       2.71686000       2.75028000       1.57660800      -1.70083300       1.51404400       0.48193796      -0.80450256       1.00871579
Fe       4.62966000       0.98828000       5.06676000       0.07922500       1.31640700       1.29952100      -0.64582157       1.60848221       0.42475609
Fe       0.62475000       4.47163000       2.76945000       1.95380600      -3.21231900      -1.53544400       1.68310365      -1.38066437      -1.25547416
Fe       4.87774000       4.67993000       4.41653000      -0.64493200      -0.53503200       0.30435400      -0.51476552      -0.38274132      -0.12637730
Fe       3.59664000       2.87221000       4.83153000       0.23532500      -0.37357900      -1.60523300       0.38401716       0.25826450      -0.44333594
Fe       0.66156000       0.50203000       0.73880000      -0.79576700      -0.85035100      -0.29863700      -1.13163195      -0.94471974      -0.18651592
Fe       2.16986000       4.37529000       0.15492000      -0.00013300       0.94038800       0.69583500       0.82115502       0.63775954       0.75909047
Fe       3.84648000       4.71531000       2.05312000       0.75417200       0.77170900      -2.19861800       1.31614149       0.19322087      -1.33549847
Fe       2.60819000       2.98871000       2.55518000      -1.76382900      -0.62449100       0.20491400      -0.86455747       0.01850116       0.12113100
15
Lattice="5.664536 0.0 0.0 0.0 5.664536 0.0 0.0 0.0 5.664536" Properties=species:S:1:pos:R:3:REF_forces:R:3:MACE_forces:R:3 config_type=Fe13Si1B1 REF_energy=-108.15566798 MACE_energy=-64.20650959447299 pbc="T T T"
B        4.14873000       2.95379000       1.06658000       0.16200100      -0.29917000      -0.39394100       0.31789630      -0.22910489      -0.58709780
Si       3.70970000       1.75376000       4.70342000       2.39954500       1.99334400       0.69658000       0.98027356       1.39146195       0.45802610
Fe       0.77141000       5.48369000       0.61772000       0.15863900      -0.70463600       0.73580300       0.57262631      -0.66040182       0.25936603
Fe       2.70222000       5.62328000       2.66112000      -2.84701800       1.11988600      -2.77526600      -1.90485675       1.35637295      -1.30987090
Fe       2.40590000       1.49012000       0.76033000       2.44811900      -1.09619800       2.05304000       2.47904628      -0.41805662       1.00226345
Fe       0.05981000       0.25678000       4.08407000      -0.72088300      -0.40435400      -1.12965000      -0.42131056      -0.05071185      -0.61786715
Fe       2.69016000       5.46683000       4.60121000      -0.81406600      -1.20768000       2.79556400      -0.19038621      -0.15987856       1.39467555
Fe       1.47386000       1.76151000       4.03878000       0.25632200       2.31886200      -0.70750300       1.15229251       1.52973089       0.00869018
Fe       5.58209000       3.47185000       2.53703000       2.04828400       0.56513400      -0.37619200       1.18729215       0.29876488       0.21229566
Fe       2.39981000       3.74553000       0.37431000      -0.23425500       0.56240000       0.37900500       0.52352363      -0.47224597       0.37440540
Fe       4.35312000       1.55651000       2.64463000       0.99871600      -1.26274600      -2.03362100       0.29083919      -0.33566052      -1.28758592
Fe       4.71996000       4.32124000       4.97431000      -0.09930100      -2.16645100       0.36829600      -0.90882460      -2.62933087       0.49668237
Fe       4.35696000       5.05523000       1.41829000       0.42683500       0.31250100      -0.90165400      -0.22463689       0.28371859      -0.75559255
Fe       0.47139000       2.05266000       0.60057000      -2.75315200       0.98470800      -0.10508100      -2.86392830       1.43348795      -0.34811406
Fe       3.41003000       3.62129000       2.91823000      -1.42978400      -0.71560000       1.39462200      -0.98984663      -1.33814610       0.69972363
15
Lattice="5.664536 0.0 0.0 0.0 5.664536 0.0 0.0 0.0 5.664536" Properties=species:S:1:pos:R:3:REF_forces:R:3:MACE_forces:R:3 config_type=Fe13Si1B1 REF_energy=-107.93807169 MACE_energy=-62.027406095277186 pbc="T T T"
B        3.89991000       3.42526000       0.45422000       0.11547000      -0.03553900       1.12451100       0.40876414      -0.17761995       2.05975338
Si       3.48762000       0.16630000       4.61337000       0.32574800       0.46308000      -0.01786500      -0.34008594       0.10935293       0.22588146
Fe       2.84778000       1.82037000       0.82228000      -0.98232500      -1.42221600      -1.89337000      -0.98739993      -0.63592071      -2.45373065
Fe       1.34857000       0.81784000       2.30075000      -0.53643500       0.46265000      -1.19653800      -0.04909563       0.22053424      -1.30621549
Fe       1.57642000       1.26355000       4.33118000       0.04619000       0.17232100       0.29400800       1.37947727      -0.16454909       1.15721458
Fe       0.65713000       2.94926000       0.95396000      -1.72120200      -1.22782100       0.66296100      -1.85138722      -0.66539149       0.39297008
Fe       4.05988000       1.97076000       2.38888000       1.24013900      -1.25976700       1.55714700       1.00252918      -0.91398651       1.17595110
Fe       5.41523000       1.91313000       4.86891000      -2.57043500      -0.52568200      -0.40262900      -3.69090329       0.11649152       0.13692582
Fe       1.35795000       4.61467000       3.62292000      -1.17710100      -0.19986100       1.26666800      -0.66889293       0.43301176       0.80128785
Fe       4.95776000       4.27854000       4.85033000       2.20080800       0.77958800      -0.24901600       1.21184993       0.06385640      -0.07986971
Fe       2.90817000       3.15860000       4.25698000      -0.87756600      -0.39846100       1.25184100       0.53861054      -0.39803709       1.25154608
Fe       4.97903000       5.64594000       1.36431000      -0.69131800      -0.04726100      -0.44322300      -0.91736856       0.10514677      -1.07566163
Fe       1.21860000       5.04312000       0.28941000      -0.01329800       1.97019200      -1.42146800       0.60139471       1.57238172      -1.54226512
Fe       4.19049000       3.99341000       2.69223000       2.99720200       1.59092800      -0.45710200       1.21853266       1.36250465      -0.50566365
Fe       2.24232000       4.14646000       1.80095000       1.64412400      -0.32215200      -0.07592500       2.14397507      -1.02777516      -0.23812411
15
Lattice="5.664536 0.0 0.0 0.0 5.664536 0.0 0.0 0.0 5.664536" Properties=species:S:1:pos:R:3:REF_forces:R:3:MACE_forces:R:3 config_type=Fe13Si1B1 REF_energy=-111.97852358 MACE_energy=-67.50353727653354 pbc="T T T"
B        0.06916000       5.66432000       5.18689000       0.12008200      -0.64043800       0.01360000       0.30631816      -0.86067277      -0.06861708
Si       0.02740000       2.72248000       2.59682000      -0.95092500       0.36379500       0.29566700      -0.71961069       0.38227451       0.33360692
Fe       0.14116000       5.54768000       2.85133000       0.08282300      -0.00674100       0.52027800      -0.51628303       0.24687008       0.61246877
Fe       5.56722000       2.97052000       5.53670000      -0.67309900       0.24460700       0.18564600       0.22284311       0.01689548       0.13684946
Fe       2.56501000       0.00405000       5.40440000       0.68434000      -0.27592000       0.60718700       0.24214289      -0.29614425       0.61625860
Fe       2.97079000       2.77487000       5.60913000       0.61990200      -0.30745300       0.59180600      -0.52532868      -0.02289282      -0.09098632
Fe       3.14055000       2.58779000       2.39876000      -0.26535600       0.46856000       0.15364600      -0.49039015       0.33785099       0.59700986
Fe       1.27023000       1.29362000       1.29220000       0.59662900      -0.36144800      -0.82067800      -0.09447178      -0.04259581      -0.95432369
Fe       1.26884000       1.40412000       4.24821000      -0.00500300       0.79776500      -0.57479700      -0.11492398       0.79229985      -0.48154072
Fe       1.43809000       4.26211000       1.36341000       0.07769500      -0.05884300      -0.22592600      -0.11318282      -0.27976812      -0.45068705
Fe       1.52070000       4.14480000       4.13170000      -0.18321100      -0.27105400      -0.71528600      -0.74988423      -0.43343089      -0.29568346
Fe       4.46936000       1.09579000       0.98330000      -0.11971100       0.01004100       0.24750400       0.53761384       0.07905078      -0.12253328
Fe       4.16783000       1.22547000       4.11325000       0.42899800      -0.08684700      -0.08842400       1.19223044       0.05173719       0.25878590
Fe       4.22673000       4.46813000       1.30140000       0.09689500      -0.37725000      -0.41990000       0.45955749      -0.37357410      -0.37087644
Fe       4.20815000       4.21553000       4.01300000      -0.51005900       0.50122500       0.22967700       0.36336944       0.40209989       0.28026854
15
Lattice="5.664536 0.0 0.0 0.0 5.664536 0.0 0.0 0.0 5.664536" Properties=species:S:1:pos:R:3:REF_forces:R:3:MACE_forces:R:3 config_type=Fe13Si1B1 REF_energy=-111.93959828 MACE_energy=-67.17565545659741 pbc="T T T"
B        0.52210000       0.05440000       5.04153000      -0.83789800      -0.96014800      -0.42271900      -0.33081514      -0.71235701      -0.82558347
Si       5.59498000       2.75302000       2.63746000      -0.41285400      -0.16722200       0.32382300      -0.12199287      -0.17284016      -0.06952078
Fe       0.17766000       0.05624000       2.77011000      -0.22089500       0.44737300       1.17937900      -0.36457998       0.01114303       1.19691689
Fe       5.59682000       2.78032000       5.61495000      -0.22239300       0.41310500      -0.03657000       0.03355824       0.15071435      -0.55915664
Fe       2.71989000       5.37982000       5.43745000       0.17724800       0.17436200       0.47840000      -0.86986716       1.00958932       0.16152147
Fe       2.70157000       2.72483000       5.65192000       0.89303700       0.73165300       0.81071700       0.76465411       0.46668108       0.12507096
Fe       2.97278000       2.68063000       2.60608000       0.64664100       0.39382500      -0.89779500       0.53716608       0.71228686      -0.61560401
Fe       1.04462000       1.15381000       0.98518000       0.85892600      -0.28038300       0.02628300       0.82116780       0.27832492       0.27762502
Fe       1.65813000       1.50296000       3.98982000      -0.38663100      -0.26210300      -0.11433700      -1.22208803      -0.57342889       0.58177837
Fe       1.30631000       4.30849000       1.24352000      -0.41412900       0.11159100       0.24697100      -0.34684007      -0.22721147      -0.12737714
Fe       1.58576000       4.06734000       3.99489000      -1.17533100      -0.00634600      -0.85725300      -1.26930826       0.21802629      -0.03433396
Fe       4.12820000       1.13618000       1.10587000       0.62554700       0.31979100       0.22031500       0.76766510       0.35658732       0.31067383
Fe       4.25787000       1.24949000       4.17529000      -0.08913900      -0.07677300       0.23295600       0.69468822       0.05827501       0.25269946
Fe       4.35495000       4.45297000       1.34581000      -0.13361000      -0.53467800      -0.51744000       0.01782510      -0.92503840      -0.15266828
Fe       4.41108000       4.43949000       4.32316000       0.69148200      -0.30404700      -0.67272800       0.88876685      -0.65075225      -0.52204173
15
Lattice="5.664536 0.0 0.0 0.0 5.664536 0.0 0.0 0.0 5.664536" Properties=species:S:1:pos:R:3:REF_forces:R:3:MACE_forces:R:3 config_type=Fe13Si1B1 REF_energy=-111.86184603 MACE_energy=-65.16395372982721 pbc="T T T"
B        1.50863000       1.78767000       4.90152000      -0.44122900      -0.13378600       0.30200900       0.27037791      -0.30475220       0.19058471
Si       4.79549000       2.24346000       2.10133000      -2.02834800      -2.06166200      -2.37230900      -0.86977560      -0.76732107      -1.50344284
Fe       3.20380000       0.75276000       3.12970000      -0.26094900      -0.46491400       0.88121400      -0.04438274       0.13426290       1.89469254
Fe       2.86828000       3.52346000       0.83472000       0.63525800      -0.40693500      -0.10677300       0.21769574      -0.93380466      -0.65593989
Fe       0.30208000       0.41203000       3.59178000       0.43152100       1.99959300       0.71104900       0.46594839       2.02439652      -0.04715290
Fe       4.64149000       4.82814000       4.64319000      -2.32204000      -0.32641000       1.26424000      -2.59001033       0.23035881       1.08474548
Fe       1.38623000       5.04883000       1.95913000       0.13404600      -0.76597900       0.26900800       0.44410340      -1.01117625       0.41916029
Fe       0.01651000       0.69762000       0.56316000       0.43357300       0.50429600      -0.59615700       0.60705361       0.67145365      -0.50610767
Fe       1.71843000       1.81951000       1.96274000      -0.50569400       0.44278300      -1.08150200      -1.41211900       0.68116293      -0.85353489
Fe       2.49328000       3.31853000       3.75571000       0.60663900       0.53722000       0.22889400       0.47544360      -0.14662837       0.57789615
Fe       0.35204000       3.39611000       0.17394000       0.28417100      -0.58935200       0.45847800       0.49904235      -0.91009823       0.91346461
Fe       0.11270000       3.44811000       3.40342000       2.52442400       0.78461300       1.86263000       1.72519058      -0.22268112       0.57088489
Fe       4.37430000       4.86511000       1.96411000       0.02203300      -0.44143500      -0.21812100       0.78579651      -0.67208745       0.09509362
Fe       1.91304000       5.29856000       5.45252000       0.85584700       1.12077600      -1.36953800       0.50082532       1.13670531      -1.90190486
Fe       3.73798000       1.56980000       5.38787000      -0.36925300      -0.19880800      -0.23312100      -1.07518974       0.09020922      -0.27843926
15
Lattice="5.664536 0.0 0.0 0.0 5.664536 0.0 0.0 0.0 5.664536" Properties=species:S:1:pos:R:3:REF_forces:R:3:MACE_forces:R:3 config_type=Fe13Si1B1 REF_energy=-121.96103282 MACE_energy=-65.35266213542992 pbc="T T T"
B        1.89945000       0.62627000       3.85277000      -2.50069800       2.16966800      -1.53918900      -2.05387502       2.14183365      -0.37406243
Si       0.20120000       2.04269000       2.64503000       1.02931600      -0.66199100      -2.72694900       0.50632261      -0.46820080      -1.22951208
Fe       2.66066000       5.42797000       2.26357000       0.53979700      -0.03646200      -1.31830900       0.32819178      -0.33610092      -0.67435616
Fe       2.90276000       2.67008000       2.15492000      -1.83815700      -0.38139400      -2.84113500      -1.88373753      -0.13615858      -1.31945930
Fe       3.76617000       1.41579000       3.61058000       1.59818700      -1.99316500       0.96094000       1.31192921      -1.02591569       0.71302557
Fe       4.35629000       3.78643000       3.20548000      -0.08184500       1.05317100       0.76552100      -0.21545084       0.53781150       0.82532626
Fe       4.47628000       4.06991000       0.64852000      -0.83953300      -0.22453300       0.86736600      -0.99992913      -0.05815741       0.08352693
Fe       4.19523000       1.12987000       0.84517000       0.20926900       0.78044000      -1.95195400       0.36848368       0.13284814      -0.65661687
Fe       1.20944000       0.98558000       0.54562000       0.36331500       0.64694800       1.15320100       0.56160294       0.62758356       0.17639151
Fe       2.93679000       5.24715000       4.85612000       1.78737200      -1.05335100       3.04321700       0.71837690      -0.59044295       1.43938934
Fe       2.46429000       3.02068000       4.78866000      -0.08418600      -0.93215200       0.71303400       0.03334948      -1.18780454       0.13534030
Fe       5.64539000       2.77685000       4.69631000       0.33002600      -0.76378800       3.33994500       0.49710143      -0.71507843       1.37352679
Fe       1.14045000       3.92385000       0.99225000      -0.27335200       0.02348800       0.25089500       0.22218435       0.08620632      -0.42035521
Fe       0.17432000       5.38924000       4.59788000      -0.87103600      -0.20642700       0.99417600      -0.30303345      -0.08156254       0.48677268
Fe       5.41134000       5.44443000       2.36685000       0.63152700       1.57954900      -1.71076000       0.90848358       1.07313868      -0.55893732
15
Lattice="5.664536 0.0 0.0 0.0 5.664536 0.0 0.0 0.0 5.664536" Properties=species:S:1:pos:R:3:REF_forces:R:3:MACE_forces:R:3 config_type=Fe13Si1B1 REF_energy=-109.57699008 MACE_energy=-64.90458423844504 pbc="T T T"
B        1.60964000       1.20953000       3.30762000      -0.01479600      -0.54483200       0.36412700      -0.21669425       0.38291784      -0.05061850
Si       1.95419000       3.78303000       0.40477000       2.58923000       0.78612200      -1.61162900       1.54332111      -0.05386853      -0.45625278
Fe       3.57229000       4.89724000       1.78218000      -0.69680300       0.94883800       2.04020100      -0.64561373       0.51290643       1.02800111
Fe       3.21513000       2.00319000       1.86162000       1.30615200      -1.04311700      -1.34636300       0.63798101      -0.62945318      -0.32295746
Fe       5.12136000       1.05340000       3.05836000       0.48907600      -0.57242700       0.35981000       0.95201552      -0.90808002       0.53170342
Fe       5.33303000       3.41064000       3.19935000      -1.19050900       0.64225800       0.16946300      -0.65737378       0.29131535       0.04581145
Fe       4.69645000       3.56410000       0.59057000       0.42357200      -2.45414500       1.39631500       1.21333958      -2.17855980       1.05965587
Fe       5.00397000       0.79608000       0.67759000       0.28054300       1.18762000       0.69531900      -0.40921983       0.10009144       0.03917975
Fe       1.02131000       2.39370000       1.67631000      -1.48205000      -1.99677700       1.89497700      -0.65210186      -0.68983439       1.03761897
Fe       4.49205000       4.87623000       4.87240000      -1.22864200       1.13873400      -2.26444700      -1.14193447       1.18997452      -1.84647175
Fe       3.40200000       1.47027000       4.46233000      -0.01871000      -0.18409200       0.67173000      -0.14754444      -0.62965353       0.81335516
Fe       0.59504000       2.14210000       5.17631000       0.66645200      -0.32293300      -3.32851400       1.00719437      -0.12240208      -2.84336663
Fe       1.14446000       5.07983000       4.43636000      -0.37358200       1.06798600      -0.87155500      -0.37909693       0.99137771      -0.61380579
Fe       2.52599000       3.18146000       3.48749000      -0.80261000       1.79870400       1.25168000      -1.41975716       1.83375884       0.71847965
Fe       0.91985000       5.18762000       1.86613000       0.05267700      -0.45193900       0.57888600       0.31548487      -0.09049061       0.85966754
15
Lattice="5.664536 0.0 0.0 0.0 5.664536 0.0 0.0 0.0 5.664536" Properties=species:S:1:pos:R:3:REF_forces:R:3:MACE_forces:R:3 config_type=Fe13Si1B1 REF_energy=-111.24757227 MACE_energy=-65.68698278600729 pbc="T T T"
B        2.53656000       2.62317000       3.66583000      -0.11566700      -0.22978700       0.53017200       0.16031895       0.34854467       0.41698160
Si       0.67483000       4.27329000       2.69225000       0.92910600       0.68145900       0.71622000       0.92323257      -0.03307702       0.27792691
Fe       5.14560000       5.37767000       1.05479000      -0.04263700       0.54874800      -0.34508500      -0.49774717       0.38928575       0.15023513
Fe       5.17725000       2.96978000       1.28337000      -0.94481700       0.15150400      -1.65556500      -1.20693864       0.36914311      -1.05995946
Fe       4.74580000       3.13666000       4.02461000      -0.25444200      -0.82574700      -0.11998600      -0.53144605      -0.81102563      -0.63050001
Fe       0.33821000       1.51110000       2.57588000       1.22080500      -1.49602800       0.46012600       1.77437993      -0.74585628       0.96774924
Fe       3.09808000       4.41167000       2.55098000       1.58954700      -0.62340300      -0.59486000       1.57923634      -1.43946457      -0.14704111
Fe       4.73088000       0.16933000       4.32731000       1.21238200      -0.98254900      -0.92008400       0.75056308      -1.07705980      -1.08099684
Fe       3.65998000       1.37781000       0.06620000      -0.53114300       0.39644200       0.40797800      -0.77812242       1.36336878      -0.68249194
Fe       3.63898000       1.27668000       2.55773000      -0.56432500       0.60761700      -1.09420600      -0.44728799       0.52391476      -0.39550757
Fe       3.30156000       4.03302000       5.51710000       0.66273100       0.68309200      -0.51252300       0.81269419       0.61543939      -1.11718840
Fe       2.04972000       2.93776000       1.03536000      -1.23701100      -0.98796000       1.66434700      -1.05203294      -1.08562861       2.13124057
Fe       2.16302000       5.60665000       3.99134000      -0.76618900       1.59088200       1.80303200      -0.61976722       1.51304521       0.91224980
Fe       0.95543000       1.84266000       4.95473000       0.27866900      -0.07002100       0.06014100       0.12020465      -0.35249784       0.01654748
Fe       2.02568000       0.02468000       0.99960000      -1.43701000       0.55575000      -0.39970700      -0.98728729       0.42186809       0.24075459
15
Lattice="5.664536 0.0 0.0 0.0 5.664536 0.0 0.0 0.0 5.664536" Properties=species:S:1:pos:R:3:REF_forces:R:3:MACE_forces:R:3 config_type=Fe13Si1B1 REF_energy=-108.79062395 MACE_energy=-64.75028876828412 pbc="T T T"
B        5.36400000       3.87568000       4.45905000       0.44648400       0.57032200       0.28604800       0.26661629       0.72157141      -0.41150854
Si       3.93387000       4.96403000       3.15711000      -4.30606800      -2.31482200      -2.68264300      -1.34376129      -1.20074004      -1.26666800
Fe       3.00216000       0.92096000       1.44117000      -0.76996800       0.42082500      -0.07835300      -0.21752394       0.21057934       0.10168021
Fe       1.34518000       5.62588000       2.73234000       2.41172500       0.19969700       0.20083700       2.12787122      -0.76844404       0.76477902
Fe       0.44730000       2.09377000       4.98703000       1.17940300       0.68255400       0.66504100       1.15271654       0.91004582      -0.36112356
Fe       0.30923000       3.79563000       2.39919000      -0.97580900      -1.20085800      -1.00234600      -0.87217083       0.16184592       0.15174815
Fe       0.18648000       1.06356000       1.31692000      -0.60348600       1.79501500       0.12312700      -0.33338898       1.30277504       0.27600288
Fe       4.00265000       2.83038000       0.00570000       0.03088500      -0.70677300      -0.45368100       0.47427427      -0.48136644      -0.38946155
Fe       5.37135000       0.30945000       4.05759000       2.43746500       1.21842000       2.05861100      -0.21547237      -0.33034104       1.11602205
Fe       2.32985000       3.12186000       1.52540000       0.40818200       0.55373600       0.67629300      -0.13517683       0.87487103       0.33479401
Fe       2.77320000       0.82160000       4.63749000       0.11143500       0.28254000       0.06072400       0.43621742       0.19950049      -0.46816677
Fe       1.20304000       4.94889000       5.64649000       0.50304000      -0.54997900       0.60819900      -0.61540640      -0.07272766       0.75723451
Fe       4.43330000       2.29054000       2.94368000      -1.10290800       0.42652200       0.72577900      -0.97675627       0.41861206       1.35424075
Fe       4.45738000       5.14386000       0.73674000       0.07827300      -0.88309100      -1.20270400       0.40792524      -1.82650435      -1.26319529
Fe       2.20236000       3.55424000       4.11335000       0.15134500      -0.49410700       0.01507000      -0.15596406      -0.11967754      -0.69637787
15
Lattice="5.664536 0.0 0.0 0.0 5.664536 0.0 0.0 0.0 5.664536" Properties=species:S:1:pos:R:3:REF_forces:R:3:MACE_forces:R:3 config_type=Fe13Si1B1 REF_energy=113.06017811 MACE_energy=-63.992511520747996 pbc="T T T"
B        1.39848000       0.19193000       0.61048000      -4.08297800       9.29302800       8.69098400       0.85616846       0.72369222       1.49465079
Si       2.92490000       2.16030000       2.14060000      -2.63496600       9.58037000      -0.49561900      -0.06640421      -0.39978141       0.31782264
Fe       2.86073000       2.70503000       5.26584000       4.32356800      10.20896900      -4.70309300       1.41654639      -1.48763519      -1.02647852
Fe       4.47802000       3.64784000       3.04881000      -8.75739200       8.66530300      12.20431400      -0.29150134       0.23199418       2.58406313
Fe       0.21576000       2.05514000       5.23160000     -18.24380600     -12.70694800      22.88283100       1.94458836       0.27745495      -0.55725052
Fe       0.44166000       2.36030000       2.32519000       9.91181000      13.04098500      -5.34425400       0.79467661      -0.67125421      -0.50019241
Fe       2.03954000       3.82953000       1.07367000      -9.51630500       5.90074000      24.04305300      -1.93102520       1.85505440       0.72894406
Fe       1.39295000       3.86962000       3.86875000       5.08493300      -5.56046400     -11.44166200       0.65639747      -0.24850183      -0.30199309
Fe       4.42805000       1.04262000       3.76613000      10.93879500       4.90624100      -3.25114800      -0.63753133       0.94621128       0.18948742
Fe       4.44753000       1.10914000       0.85325000      15.14670800      12.45203200      -7.47268500       0.02080898      -0.40252199       0.53250354
Fe       3.06886000       5.29358000       5.21060000      31.03933500     -34.73641400       1.35306500      -0.10151117      -0.49653057      -0.19633359
Fe       4.80801000       3.61880000       0.94850000       7.81841300       1.86551900       0.92546600      -1.50782011       0.14159849      -0.65768182
Fe       0.75179000       0.26400000       3.08937000     -19.58866100       1.56533600      18.55626500       0.80217242      -0.39528488      -0.72666082
Fe       3.22665000       5.43114000       2.39493000      -7.30714900       7.24190400      -9.20324300      -1.51639521      -0.17228240      -0.73353043
Fe       0.02250000       5.10600000       5.27962000     -14.13230600     -31.71660300     -46.74427400      -0.43917012       0.09778696      -1.14735037
15
Lattice="5.664536 0.0 0.0 0.0 5.664536 0.0 0.0 0.0 5.664536" Properties=species:S:1:pos:R:3:REF_forces:R:3:MACE_forces:R:3 config_type=Fe13Si1B1 REF_energy=-108.9830283 MACE_energy=-64.38176968376995 pbc="T T T"
B        0.13992000       2.30465000       0.77632000      -2.78401400      -0.82058500       0.46110900      -1.60620260      -1.00763404       1.02512994
Si       2.50353000       2.08237000       3.22653000       0.57446500       0.76610200      -0.17485000       0.37650107       0.29648592      -0.37699641
Fe       1.09387000       3.72736000       2.17845000      -2.33299800      -0.65384800       2.12861500      -1.69780889      -0.83416288       0.31839116
Fe       3.95659000       1.68198000       5.11388000       0.36857700       0.27726400       0.90410800       0.72421127       0.22903288       1.36189403
Fe       3.24055000       0.05102000       1.45794000       1.85872300       1.81044900       1.22583000       0.71515160       1.56682638       1.29573947
Fe       1.11690000       0.40651000       2.78471000       0.23956900      -0.40930100      -0.23173800       0.22375238       0.19890741      -0.43869301
Fe       4.54933000       5.58716000       3.59286000      -0.31901000      -1.37235600       0.15251700       0.29752606      -0.88254024      -0.16351296
Fe       2.02209000       2.17177000       0.81391000       2.28654300       0.57567400       0.95002900       0.70206323       0.05379303       0.92583798
Fe       2.49600000       4.37528000       3.91048000       1.01885200       0.91593900      -0.12431400      -0.05779955      -0.02237296      -0.03332261
Fe       1.55562000       0.82810000       4.97050000      -1.41574600      -0.55119900      -1.41023600      -0.64308376       0.26146524      -0.44738625