1
Lattice="18.0 0.0 0.0 0.0 18.0 0.0 0.0 0.0 18.0" Properties=species:S:1:pos:R:3:REF_forces:R:3:MACE_forces:R:3 config_type=IsolatedAtom REF_energy=-3.283081 MACE_energy=-3.283081 pbc="T T T"
Fe       0.00000000       0.00000000       0.00000000       0.00000000       0.00000000       0.00000000      -0.00000000      -0.00000000      -0.00000000
1
Lattice="18.0 0.0 0.0 0.0 18.0 0.0 0.0 0.0 18.0" Properties=species:S:1:pos:R:3:REF_forces:R:3:MACE_forces:R:3 config_type=IsolatedAtom REF_energy=-0.81049333 MACE_energy=-0.81049333 pbc="T T T"
Si       0.00000000       0.00000000       0.00000000       0.00000000       0.00000000       0.00000000      -0.00000000      -0.00000000      -0.00000000
1
Lattice="18.0 0.0 0.0 0.0 18.0 0.0 0.0 0.0 18.0" Properties=species:S:1:pos:R:3:REF_forces:R:3:MACE_forces:R:3 config_type=IsolatedAtom REF_energy=-0.27559471 MACE_energy=-0.27559471 pbc="T T T"
B        0.00000000       0.00000000       0.00000000       0.00000000       0.00000000       0.00000000      -0.00000000      -0.00000000      -0.00000000
10
Lattice="9.0 0.0 0.0 0.0 9.0 0.0 0.0 0.0 9.0" Properties=species:S:1:pos:R:3:REF_forces:R:3:MACE_forces:R:3 config_type=Fe5B1Si4 REF_energy=-44.58554767 MACE_energy=-41.73674389271096 pbc="T T T"
Fe       3.50176000       8.99673000       3.09396000       0.95435000      -0.45803800       0.21474200       1.60570398      -0.20742658       0.49224544
Fe       6.43801000       1.81225000       6.74888000       1.10970900      -0.66476800      -1.17007400       1.04969673      -0.81700666      -1.60993797
Fe       2.41193000       0.16613000       4.88253000       0.30913200      -0.89996000       0.17011800       0.86016522      -0.98810045      -0.01353690
Fe       8.52164000       3.22369000       0.34244000      -0.58790500      -0.47306700      -0.37861700      -0.31370215      -0.21097221      -0.38846734
Fe       5.66627000       2.92739000       3.87411000       4.77509600       2.80733600       2.40000400       3.52224130       2.38920603       2.19602723
B        5.18442000       1.13758000       3.40139000      -0.73957100       0.38065100       0.44676100      -1.76982370       0.63852076       0.50208474
Si       7.10242000       1.59600000       3.97694000       2.28029300      -3.67324000       1.18634800       2.35739796      -3.60489791       1.42169276
Si       7.70822000       8.86280000       6.25904000      -0.73207200       1.84563600      -0.48266000      -0.93858273       1.67856858      -0.32789896
Si       3.91832000       3.09724000       3.40175000      -6.85054500      -1.08983400      -1.75602400      -5.59078413      -1.58529481      -1.63023547
Si       3.63788000       6.78794000       4.49538000      -0.51848800       2.22528500      -0.63059800      -0.78231250       2.70740327      -0.64197352
10
Lattice="9.0 0.0 0.0 0.0 9.0 0.0 0.0 0.0 9.0" Properties=species:S:1:pos:R:3:REF_forces:R:3:MACE_forces:R:3 config_type=Fe5B1Si4 REF_energy=-48.18464377 MACE_energy=-47.15805068003631 pbc="T T T"
Fe       7.72908000       2.13801000       3.67226000      -0.72140700       1.38590200       0.18439100      -0.54434568       0.88571204      -0.03605793
Fe       2.56544000       0.37534000       3.55582000       0.62580800       1.02854400      -0.21951900       1.33212178       1.27235210      -0.25465630
Fe       5.84797000       2.87648000       5.04299000      -0.51992300      -1.03088200      -1.60504700      -0.96998033      -1.44891562      -0.69605011
Fe       2.00259000       1.62931000       5.21757000       0.16709900       0.68697000      -1.46342200       0.25693366       0.69630539      -1.67581260
Fe       3.04146000       3.03902000       3.03634000       2.84541400      -0.11631900       1.57660000       3.15198571      -0.23220048       1.83555111
B        4.26036000       4.67435000       3.72342000       0.68065500      -0.16735200      -1.56590600       0.66085046      -0.05325071      -2.38744790
Si       6.34493000       4.18783000       3.43892000      -0.40775000      -0.06673100      -0.63978400      -0.60411852       0.25321411      -0.88258206
Si       0.98363000       2.81182000       2.85911000      -2.44913300      -1.45501500       1.18349900      -2.04937209      -1.43228530       1.37166373
Si       4.97672000       0.35177000       3.88032000      -0.44220000       1.58116100       0.17191700      -1.14197868       2.27145328       0.17564203
Si       4.49316000       6.21641000       2.06194000       0.22143900      -1.84627800       2.37727300      -0.09209631      -2.21238482       2.54975002
10
Lattice="11.0 0.0 0.0 0.0 11.0 0.0 0.0 0.0 11.0" Properties=species:S:1:pos:R:3:REF_forces:R:3:MACE_forces:R:3 config_type=Fe5B1Si4 REF_energy=-11.58855075 MACE_energy=-34.53067298102176 pbc="T T T"
Fe       8.76471000       0.00946000       6.88513000      -0.22819700       0.12237200      -0.55543600      -0.00000000      -0.00000000      -0.00000000
Fe       2.63377000       1.33277000       3.45207000      -0.77576300      -0.08136400      -0.00027500      -0.64554137      -0.12890703      -0.39148000
Fe       9.34605000       7.55219000       3.04608000      -1.57311900      -1.03473800      -0.15487700      -1.02622142      -0.64742105       0.00442772
Fe       6.36389000       7.12183000       3.09324000       1.09683100       0.04242100      -0.12816300       1.42223195       0.20548419      -0.02248572
Fe       1.35866000       0.14865000       4.85122000       1.24564900       1.43265900      -2.24078300      -0.39233544       0.52824906      -1.19750937
B        0.74424000       4.87887000       2.93866000      -1.13359500      -0.78566000      -1.94809000      -0.70898142      -0.66070904      -2.14579390
Si       0.41110000       1.07145000       2.73658000       1.34178700       0.50456200      -0.25058800       0.87566261       0.76621853      -0.59737484
Si       0.39736000       3.73439000       0.50956000      -1.07905800      -1.52336200       2.18566600      -0.76048929      -1.25194151       2.97194467
Si       9.29283000       2.08457000       0.89045000       2.55214100       0.43757800       0.40081500       2.63465506       0.75689453       0.62164191
Si       2.63700000       1.37373000       1.21644000      -1.44667700       0.88553200       2.69173100      -1.39898068       0.43213231       0.75662951
10
Lattice="11.0 0.0 0.0 0.0 11.0 0.0 0.0 0.0 11.0" Properties=species:S:1:pos:R:3:REF_forces:R:3:MACE_forces:R:3 config_type=Fe5B1Si4 REF_energy=-38.14997444 MACE_energy=-40.375294919328255 pbc="T T T"
Fe       0.55560000       8.19331000       7.06229000       0.60700700      -1.87987400       0.40247700       0.15564468      -0.74547192       0.33032387
Fe       0.49601000       2.54487000       7.78872000      -1.62914400       1.44061600       0.72816300      -1.68842594       1.52117429       0.67141572
Fe      10.07332000       3.88379000       9.42053000       1.49055100       0.96476400      -0.05327700       1.18906529       1.45105299       0.45311988
Fe       4.45932000       9.07691000       6.11289000       0.24660800      -0.52821700      -0.02378300       0.94134881      -1.10039668       0.03941265
Fe       9.54221000       0.53076000       0.28158000      -0.51209300       1.49842300      -0.39218500      -0.61460742       1.33502946      -0.25430698
B       10.69505000       5.70310000       8.40523000       0.71876200      -1.05034900      -0.26069900       0.79255975      -2.03510976      -0.47325331
Si       9.01619000       3.31434000       7.76349000       0.22101700      -0.39376100      -0.82483600       0.49430366      -0.21573698      -0.82617522
Si       1.50005000       6.10934000       7.36041000      -1.47354600       0.22179200       0.82993100      -1.55141713      -0.06422796       0.74978488
Si       8.29851000       3.23195000      10.75936000       1.25238600      -0.70606300      -0.69191000       1.50235509      -0.98369389      -0.75963158
Si       3.13187000      10.62875000       6.05729000      -0.92154800       0.43266900       0.28612000      -1.22082679       0.83738044       0.06931009
10
Lattice="11.0 0.0 0.0 0.0 11.0 0.0 0.0 0.0 11.0" Properties=species:S:1:pos:R:3:REF_forces:R:3:MACE_forces:R:3 config_type=Fe5B1Si4 REF_energy=-39.54850766 MACE_energy=-42.232392099321984 pbc="T T T"
Fe       7.32260000       2.25273000       9.60151000      -0.81068000       1.95759200       1.52424100      -0.79071612       1.81397430       1.56219331
Fe       5.30456000       3.18059000       0.62935000       3.59407800       0.60301100       0.45004200       3.76004021       0.65987288       0.16108213
Fe       5.70290000       5.32015000      10.23784000      -0.55638700      -0.41691100      -0.58631200      -0.69992923      -1.18874918       0.00249288
Fe       7.71673000       4.32859000       0.10409000      -1.51783000      -0.48364700      -0.94636500      -1.64975582      -1.01726473      -0.89638461
Fe       5.73415000       7.17747000       8.80515000      -0.19559000      -2.26799700       1.43769300      -0.53383690      -1.06871453       0.63833823
B        3.53335000       2.44513000       3.14396000       1.80602500       1.42469000       1.46529900       2.12346638       0.81553026       1.55440707
Si       3.05847000       4.99331000       9.56994000       1.58460600       0.22347600       0.29443400       1.98473737      -0.11455159       0.85820763
Si       4.66874000       2.05360000       5.35076000      -1.23296500       0.33348000      -2.53096100      -1.59886131       0.51105599      -3.05375460
Si       3.35109000       3.37679000       0.23198000      -2.51854700       0.79060000      -0.76406600      -2.67679922       0.98505184      -0.41703306
Si       4.02675000       4.41289000       2.41329000      -0.15270900      -2.16429400      -0.34400600       0.08165464      -1.39620524      -0.40954898
10
Lattice="11.0 0.0 0.0 0.0 11.0 0.0 0.0 0.0 11.0" Properties=species:S:1:pos:R:3:REF_forces:R:3:MACE_forces:R:3 config_type=Fe5B1Si4 REF_energy=-30.22050192 MACE_energy=-41.53576649281236 pbc="T T T"
Fe       7.51027000      10.11418000       2.18625000      -1.69790900       1.72973200      -1.19644900      -0.70382585       2.51391328      -0.60247159
Fe       6.52329000       1.24583000       0.98294000       2.87583100      -1.88416600       0.59355300       2.09278655      -0.45183376       1.68754456
Fe       8.50320000       0.98219000       3.23617000       1.14940800      -1.93965800      -1.01181700       0.48516350      -3.00685645      -2.47575074
Fe       8.81725000       8.60479000       1.96311000       1.70133000      -1.33465300       0.85149000       1.08224452      -0.87686243       0.30647656
Fe       9.16079000       2.26416000       1.64872000      -0.92180800       1.06168500      -1.01542500      -1.31966116       0.55937424      -0.55372445
B        8.94441000       4.16897000      10.47399000      -1.12511400       0.54375800       0.63670800      -0.88122948       0.46078151       0.51092527
Si      10.42398000       4.23416000       1.05026000      -1.52480000      -0.05410100      -1.01659500      -1.68390357      -0.47584980      -1.41674376
Si       7.56198000       2.31002000       4.34386000      -1.29363800       1.80115300       0.97958300      -1.12696602       1.74777326       0.59794999
Si       8.52672000       8.61906000      10.86161000      -0.94443500       0.65405000      -0.31886100      -0.37758505       0.45458740       0.31264511
Si       6.81456000       4.96874000       9.06450000       1.78113500      -0.57779900       1.49781200       2.43297655      -0.92502726       1.63314905
10
Lattice="11.0 0.0 0.0 0.0 11.0 0.0 0.0 0.0 11.0" Properties=species:S:1:pos:R:3:REF_forces:R:3:MACE_forces:R:3 config_type=Fe5B1Si4 REF_energy=-36.59236839 MACE_energy=-43.678793535075926 pbc="T T T"
Fe       3.58274000      10.79851000      10.73667000       0.11897900       0.22630100      -0.04976800      -0.00000000      -0.00000000      -0.00000000
Fe       1.22875000       2.49300000       7.21708000       2.26097500      -1.53625800       1.07649700       1.76870460      -1.14102254       0.99333545
Fe       0.83190000       3.93076000       3.48688000       1.35086000      -1.69250200       0.45489600       1.28023496      -1.67546090       0.08978152
Fe       9.39560000       2.93064000       6.23859000      -2.27414300      -0.91782300      -0.86979000      -2.68542452      -0.52042239      -1.42877353
Fe       1.68648000       4.78764000       5.33563000      -2.42207400      -1.78775100      -0.34755700      -1.50341255      -1.22332658       0.51570723
B        0.09146000       3.23421000       6.27209000       0.33374200       3.18943500      -3.08739300       0.45859974       2.80583270      -3.25209760
Si      10.14804000       1.29848000       4.70398000      -0.27194000       2.69997500       0.88966000       0.31854977       2.32951811       0.99265811
Si       7.91960000       4.68330000       6.38399000       1.00571800      -0.89791700      -1.90531900       1.17481691      -0.88844976      -1.74553568
Si       7.87407000       3.80560000       3.83659000       1.69436900       0.65761100       2.09344900       1.78653923       0.46884691       2.21916136
Si      10.18862000       4.97429000       4.13294000      -1.79648600       0.05892800       1.74532400      -2.59860815      -0.15551554       1.61576315
10
Lattice="11.0 0.0 0.0 0.0 11.0 0.0 0.0 0.0 11.0" Properties=species:S:1:pos:R:3:REF_forces:R:3:MACE_forces:R:3 config_type=Fe5B1Si4 REF_energy=-37.97135349 MACE_energy=-39.37138515124813 pbc="T T T"
Fe       9.03194000       7.52207000       3.76953000      -0.41692800       1.06213800       1.36215600       0.07690445       1.33198260       0.99087637
Fe      10.13763000      10.16701000       4.97367000      -1.48414600      -0.40832500      -0.11078200      -0.93574137      -1.11095072      -0.30222946
Fe       4.72985000       7.86062000       7.54580000      -0.46341600      -0.84233600       0.25668000      -0.66128525      -1.18782517      -0.34190117
Fe       8.27206000       8.93115000       5.41966000       2.10203900       0.88604100      -1.49179500       0.95101445       0.84997793      -1.18440106
Fe       4.77388000       2.87329000       5.35297000      -0.27504900      -0.53922100      -0.84728100      -0.97062315      -0.04289422      -0.67432116
B        4.61354000       3.86066000       6.74103000      -0.14362800      -0.14915200      -1.57005500      -0.49878469       0.84272048       0.29459076
Si       1.64433000       3.13639000       3.91354000       3.75707800      -0.87803400      -0.36408100       4.67900498      -1.09185801      -1.23366789
Si       3.74801000       5.66030000       6.94882000       0.45210300       0.36957600       0.68487900       1.16082501       0.46883917       0.26280855
Si       8.69515000       0.60160000       4.24738000      -0.18983800      -0.10747800       0.51028900      -0.00612702      -0.95161131       0.51573701
Si      10.87890000       3.62141000       4.73344000      -3.33821400       0.60679200       1.56999000      -3.79518742       0.89161923       1.67250805
10
Lattice="11.0 0.0 0.0 0.0 11.0 0.0 0.0 0.0 11.0" Properties=species:S:1:pos:R:3:REF_forces:R:3:MACE_forces:R:3 config_type=Fe5B1Si4 REF_energy=-19.85588119 MACE_energy=-33.556266913563924 pbc="T T T"
Fe       0.38446000       1.64586000       0.19247000      -0.31544900       0.99906300      -1.16531000      -0.40591472       0.12979214      -0.95267470
Fe       4.73202000       7.12132000       7.31276000       0.31929800      -0.23556100       1.39875500       0.17341842       0.54350676       1.82542924
Fe       0.36789000       2.73674000       6.71847000       0.18431700      -0.99436400      -3.07194200      -0.31200308      -0.96843087      -2.32923368
Fe      10.07665000       2.07009000       8.11408000      -1.05625300       0.13475800      -0.04421700      -0.68575271      -1.02415152       0.94526510
Fe       0.10300000      10.83360000       4.98934000      -0.79988200       1.03958000       0.82376600      -0.97553259       1.62981216       0.71729987
B        9.83138000       1.34479000       5.59342000       2.73003300      -1.60069300       1.71860100       2.39917427       0.08042179       1.82083639
Si       8.95511000       2.30296000       4.33786000      -0.13907800       0.36771900       0.11506400      -0.01997117       0.15255629      -0.20149298
Si       3.99539000      10.22212000       8.61506000      -0.05248500      -0.48071600       0.18941400       0.30991962      -1.30571367      -0.54980400
Si       2.69021000       5.15166000      10.73011000       1.27722300       0.17680000       0.10453800       1.76194002       0.19562585      -0.40004411
Si       5.75937000       5.49395000      10.03068000      -2.14772600       0.59341400      -0.06866800      -2.24527805       0.56658107      -0.87558113
10
Lattice="9.0 0.0 0.0 0.0 9.0 0.0 0.0 0.0 9.0" Properties=species:S:1:pos:R:3:REF_forces:R:3:MACE_forces:R:3 config_type=Fe5B1Si4 REF_energy=-45.52219027 MACE_energy=-47.4881331976051 pbc="T T T"
Fe       5.95652000       4.23215000       1.06155000      -0.98767900      -0.50029400      -0.25142400      -0.74562225      -0.60166210      -0.93241773
Fe       5.13270000       1.30654000       4.87525000      -1.02972800       1.07694500      -1.04271400      -1.16464883       1.36526312      -1.02007410
Fe       0.86010000       2.84042000       4.86982000       1.78090900      -0.14036100      -0.68290200       1.20949005       0.03863554      -0.36799968
Fe       4.80846000       2.20734000       0.33653000      -0.70934400       1.79820400       0.47599400      -0.72990792       1.38121544       0.19230750
Fe       4.84818000       3.73073000       2.87016000      -1.11599800      -1.47444400      -2.61602900      -1.11200207      -0.76745419      -2.41997465
B        3.56051000       3.01373000       4.13091000      -3.27582500      -2.90917300      -1.74282900      -1.56722667      -2.35158124      -0.92784270
Si       3.41138000       1.28778000       2.26512000       0.95707700       2.37405100       0.97860500       1.11580316       2.08286952       0.56839874
Si       5.16668000       2.63723000       6.68984000       0.07413900      -1.78642600       3.36318600      -0.04930564      -1.08472877       2.80991277
Si       3.08125000       3.86721000       0.97989000       1.93930500      -1.04831500       0.87154200       2.13214820      -1.08066517       1.11267297
Si       4.99984000       3.77363000       4.95280000       2.36714300       2.60981200       0.64657100       0.91127196       1.01810786       0.98501688
10
Lattice="11.0 0.0 0.0 0.0 11.0 0.0 0.0 0.0 11.0" Properties=species:S:1:pos:R:3:REF_forces:R:3:MACE_forces:R:3 config_type=Fe5B1Si4 REF_energy=-40.7418507 MACE_energy=-37.9895651185093 pbc="T T T"
Fe       5.85212000       3.50546000       5.08734000       2.15677100      -0.79414500      -0.20894700       1.77051685      -0.50476180       0.03426006
Fe       4.00684000       5.71103000       1.22208000       0.17321900       0.19260900       1.30384500       0.18009488       0.41537499       1.65286220
Fe       8.00148000       8.34774000      10.98030000      -0.08363800      -0.04550400       0.02901100      -0.00000000      -0.00000000      -0.00000000
Fe       7.35073000       2.40140000       6.64128000       0.77906300       1.12479900      -0.71056100       1.41302097       1.38636332      -0.95714742
Fe      10.15241000       4.26124000       5.16236000      -1.21868700      -1.07976300       1.03424500      -2.00391072      -1.16340039       1.42063044
B        7.50939000       3.71850000       4.30627000       0.81775400       0.01191000       1.18846500       0.45364389      -0.11138457       1.58469471
Si       0.88259000       3.63568000       4.13155000       0.18457900       0.08807600       0.63549900       1.23965714       0.13084992       0.18973148
Si       4.29968000       6.34926000       4.01086000      -0.04470200      -1.65685100      -0.27530200      -0.14506746      -2.30490404      -0.60210206
Si       3.89182000       4.30839000       5.36988000      -1.81091900       1.59107900      -0.75492800      -1.51127913       1.67863401      -1.24108597
Si       9.83466000       2.97427000       7.53103000      -0.95344000       0.56779200      -2.24132700      -1.39667641       0.47322857      -2.08184344
10
Lattice="9.0 0.0 0.0 0.0 9.0 0.0 0.0 0.0 9.0" Properties=species:S:1:pos:R:3:REF_forces:R:3:MACE_forces:R:3 config_type=Fe5B1Si4 REF_energy=-42.65563223 MACE_energy=-46.39943499397857 pbc="T T T"
Fe       5.47398000       6.28103000       3.23251000       0.28355300       0.05833700       0.13117200      -0.45022517      -0.49442797      -0.52636741
Fe       3.48819000       2.94480000       4.89866000      -0.87509200      -0.04370600       2.15230300      -0.81781120       0.44218393       0.55855606
Fe       8.33854000       1.27421000       2.74786000      -0.46364400       1.92715600       1.33564000      -0.70108845       1.67692332       1.55939817
Fe       6.99962000       2.76087000       4.14267000      -0.44746500       1.63766400       1.88762100      -0.84714697       1.17982976       2.18291989
Fe       1.77962000       3.26723000       3.35280000      -0.52218800      -0.67489800       0.43259300       0.43923593      -0.58428071       0.67670378
B        4.62666000       4.86714000       2.55939000       0.26614600      -1.03752000       0.98811100      -0.16368587      -1.50369056       1.63495159
Si       4.18354000       2.39378000       2.99079000       0.43795500       1.50930000      -2.71878500       0.15179992       1.17643940      -1.34052711
Si       8.55432000       3.88894000       3.61944000       3.24804800       2.01892900      -1.57919700       3.31361903       1.32265861      -1.60671894
Si       5.93563000       1.17498000       3.69373000      -1.91994400      -5.30800600      -1.48876300      -1.37625000      -3.31990658      -1.48414269
Si       0.45419000       2.68863000       5.46192000      -0.00736800      -0.08725600      -1.14069400       0.45155278       0.10427081      -1.65477335
10
Lattice="11.0 0.0 0.0 0.0 11.0 0.0 0.0 0.0 11.0" Properties=species:S:1:pos:R:3:REF_forces:R:3:MACE_forces:R:3 config_type=Fe5B1Si4 REF_energy=-34.53347477 MACE_energy=-36.31868408581063 pbc="T T T"
Fe      10.38446000       0.44273000       4.17388000      -0.78237800      -1.86098300       1.10984900      -0.71932887      -2.16459090       1.54563626
Fe       5.58579000       5.13476000       2.28318000      -1.35183300       0.99168200      -0.54319900      -1.03111538      -0.03658108       0.40442400
Fe      10.26893000       9.29847000       6.65501000       0.41344200       0.04548900      -2.04786900       0.41519752       0.12734880      -2.90188245
Fe       8.86095000       8.11141000       4.18070000       1.29133000       1.24914000       1.04926000       1.75091904       1.36587215       1.26486766
Fe       7.69214000       0.53975000       5.12514000       1.95509500      -0.60911200      -1.00813900       1.55312174      -0.36540987      -0.45350275
B        2.74748000       4.83778000       0.91630000       1.39196400      -0.12393600      -0.20196400       1.10466186       0.02415829       0.31130513
Si       6.81162000       1.90994000       1.53462000      -0.52184800       1.18261600      -0.41056100      -0.69748783       2.28897474      -0.64604030
Si       6.12115000       4.10888000       0.52255000       1.58173000      -1.75162600       1.46051100       0.93339295      -2.47315254      -0.12202300
Si       0.91081000       9.09353000       4.86613000      -2.08485700       0.69467200       0.51855400      -3.00094140       1.03838582       0.54067015
Si       4.16380000       4.58033000      10.67633000      -1.89264600       0.18205800       0.07355800      -0.30841963       0.19499458       0.05654530
10
Lattice="11.0 0.0 0.0 0.0 11.0 0.0 0.0 0.0 11.0" Properties=species:S:1:pos:R:3:REF_forces:R:3:MACE_forces:R:3 config_type=Fe5B1Si4 REF_energy=-31.88716106 MACE_energy=-38.935730736263125 pbc="T T T"
Fe       1.14116000       9.49468000      10.94139000       1.03161900      -0.44995100      -0.39877100       0.80755867      -1.06163366      -0.65174762
Fe       7.21367000       6.98307000       4.70883000      -2.94301400      -1.46688800       0.65014200      -2.06912029      -0.14926057       0.03643317
Fe       4.99485000       7.56523000       3.28858000       0.74465000      -0.23543700      -0.70888800       0.86669081      -0.60169156      -0.28273187
Fe       5.11075000       7.78078000       8.02245000      -0.73545200      -0.54142400       0.97332500      -1.01913170      -1.26364546       0.65876025
Fe       5.02580000       6.08327000       6.14288000       1.53107200       2.07986600      -0.44355300       1.08875354       1.76852870      -0.64804037
B        6.46739000       9.52531000       1.42776000      -0.83213000      -0.78314200       0.21534400      -1.31261552      -1.19017152       0.22349460
Si       3.36056000       5.78054000       9.88043000      -0.35408900       0.86759200       0.70337500      -0.14267800       2.21877027       0.62385471
Si       3.68875000       6.60974000       1.41965000       0.14004300       0.02695200      -1.00259500       0.59695410       0.54293616      -0.37954628
Si       3.95884000       8.08391000      10.56775000       0.21456400       0.93303900      -0.26874100      -0.38194789      -0.20501576      -0.76446190
Si       1.56076000       7.66233000       9.57449000       1.20273800      -0.43060700       0.28036300       1.56553628      -0.05881661       1.18398532
10
Lattice="11.0 0.0 0.0 0.0 11.0 0.0 0.0 0.0 11.0" Properties=species:S:1:pos:R:3:REF_forces:R:3:MACE_forces:R:3 config_type=Fe5B1Si4 REF_energy=-2.43842541 MACE_energy=-42.712697170425265 pbc="T T T"
Fe       8.11536000       3.96737000       6.09845000       2.52379000       3.39438000      -0.10855200       2.54753323       3.09581815      -0.51909674
Fe       4.00538000       4.00868000       8.30741000       1.03860200       0.49749300      -0.86210200       0.67678030      -0.22630246      -0.65367507
Fe       6.21734000       5.49238000       4.54674000      -1.90078500      -0.53233000       2.45773000      -3.00137482      -1.92253904       1.36996135
Fe       6.37295000       3.21617000       6.01003000      -4.31429000      -0.62928100      -0.35144300      -4.32213473      -0.02560419      -0.72295532
Fe       4.28107000       3.14598000       4.09228000       1.68301600       0.43320300       1.57416800       1.56554476       0.84864414       0.93953600
B        8.65122000       7.09833000       7.78974000      -0.81588400      -0.96711600      -2.45875700       0.02517902      -0.33276601      -0.53594739
Si       8.15838000       5.95236000       4.46257000       2.65955200       1.43037300       0.95638300       2.89836292       0.46121244       1.03327885
Si       7.04021000       6.67768000       6.73922000       0.09201500      -1.71899800      -1.45860000      -0.16368046      -1.07622959      -1.09881513
Si       9.92269000       6.79012000       6.33039000      -1.33422700      -1.06385500      -1.26044000      -0.53215844      -0.40299444      -0.25141710
Si       6.58826000       7.17809000       3.12641000       0.36821200      -0.84387000       1.51161300       0.30594822      -0.41923900       0.43913056
10
Lattice="6.0 0.0 0.0 0.0 6.0 0.0 0.0 0.0 6.0" Properties=species:S:1:pos:R:3:REF_forces:R:3:MACE_forces:R:3 config_type=Fe5B1Si4 REF_energy=-53.79328822 MACE_energy=-52.004471820847 pbc="T T T"
Fe       0.50996000       2.31585000       5.10298000      -1.26599000      -0.50951400      -1.36914100      -1.38316814       0.06315311      -1.06463654
Fe       4.41281000       4.39623000       3.51801000       2.05066400       2.95138500      -2.14682400       1.60950302       2.26661888      -2.58116584
Fe       1.31233000       5.37312000       2.96679000      -9.66985400       0.21848200       6.64889800      -6.63269700       0.23658204       5.16940595
Fe       5.30196000       5.42046000       5.41384000       1.20364700       0.82237100      -1.12375000       0.96514964       0.57240738      -0.93725823
Fe       2.97556000       4.92730000       5.11455000      -0.79718400       0.13310700       0.96147400      -0.74698079      -0.37291078       0.47276650
B        5.46078000       0.52907000       3.64926000      -0.06089300       0.25590500       0.66478200       0.08259996       0.06103356       0.14983415
Si       2.81628000       5.37752000       2.00180000       6.85751800      -0.72904200      -5.53711500       4.94103006       0.10167213      -3.38369159
Si       3.67557000       2.72706000       4.43876000      -0.82806600      -3.20205400       1.23328500      -0.60273117      -2.64790284       0.96368823
Si       4.50462000       4.23004000       1.13387000       0.98654700      -1.71437000      -0.38631400       0.84376069      -1.18708839      -0.09418617
Si       3.47649000       1.50306000       2.12993000       1.52361000       1.77373100       1.05470500       0.92353371       0.90643492       1.30524354
10
Lattice="12.0 0.0 0.0 0.0 12.0 0.0 0.0 0.0 12.0" Properties=species:S:1:pos:R:3:REF_forces:R:3:MACE_forces:R:3 config_type=Fe5B1Si4 REF_energy=-45.66921287 MACE_energy=-43.13766913838179 pbc="T T T"
Fe       4.03767000       2.41086000       6.51410000       1.86803300       0.00585300       0.51063200       2.22041338      -0.31572094       0.44394334
Fe       4.79727000      11.75927000       9.09533000       0.54049700       0.45513700      -1.32376800       0.07116423       0.11586362      -0.24383148
Fe       5.80034000       0.20229000       7.24671000      -0.98588000       0.20802500       0.94137200      -0.82230039       0.83976767      -0.13834282