15
Lattice="5.664536 0.0 0.0 0.0 5.664536 0.0 0.0 0.0 5.664536" Properties=species:S:1:pos:R:3:REF_forces:R:3:MACE_forces:R:3 config_type=Fe13Si1B1 REF_energy=-108.19731369 MACE_energy=-52.33388723208749 pbc="T T T"
B        4.05901000       2.70568000       1.01305000      -1.63855300      -0.82904000       0.73367400      -1.01859297      -0.31534317       0.01102125
Si       2.82856000       0.10655000       3.62968000      -1.37485700       1.04288500       1.12851000      -0.70121982       0.37033557       0.54218505
Fe       2.58297000       1.18377000       1.20948000       0.93367000       0.14656100       0.38941200       1.34833341      -0.53466243      -0.36067829
Fe       0.38153000       0.68989000       3.08804000       0.88723900       3.84366500       0.15858400       0.52375610       1.12280011       0.41042927
Fe       1.54589000       2.38203000       4.72041000      -2.07199500      -0.40415400      -0.21731400      -1.41469314      -1.21657202      -0.18815975
Fe       0.00965000       3.55673000       0.57847000       1.87002200       0.46818400      -0.57360300       0.28428382       0.15641612       0.19237143
Fe       4.86453000       2.71686000       2.75028000       1.57660800      -1.70083300       1.51404400       0.53512369      -0.71565998       1.08940027
Fe       4.62966000       0.98828000       5.06676000       0.07922500       1.31640700       1.29952100      -0.65313520       1.15543451       0.26244307
Fe       0.62475000       4.47163000       2.76945000       1.95380600      -3.21231900      -1.53544400       1.35503846      -0.64328243      -0.98622083
Fe       4.87774000       4.67993000       4.41653000      -0.64493200      -0.53503200       0.30435400      -0.55755352      -0.11117624      -0.29793556
Fe       3.59664000       2.87221000       4.83153000       0.23532500      -0.37357900      -1.60523300       0.35349666       0.13486855      -0.46447477
Fe       0.66156000       0.50203000       0.73880000      -0.79576700      -0.85035100      -0.29863700      -0.75227948      -0.83353131      -0.18412235
Fe       2.16986000       4.37529000       0.15492000      -0.00013300       0.94038800       0.69583500       0.72752612       0.78836468       0.67033859
Fe       3.84648000       4.71531000       2.05312000       0.75417200       0.77170900      -2.19861800       1.05934034       0.55683819      -1.01670864
Fe       2.60819000       2.98871000       2.55518000      -1.76382900      -0.62449100       0.20491400      -1.08942446       0.08516983       0.32011125
15
Lattice="5.664536 0.0 0.0 0.0 5.664536 0.0 0.0 0.0 5.664536" Properties=species:S:1:pos:R:3:REF_forces:R:3:MACE_forces:R:3 config_type=Fe13Si1B1 REF_energy=-108.15566798 MACE_energy=-52.90973783179938 pbc="T T T"
B        4.14873000       2.95379000       1.06658000       0.16200100      -0.29917000      -0.39394100       0.30979200      -0.40681201      -0.83535395
Si       3.70970000       1.75376000       4.70342000       2.39954500       1.99334400       0.69658000       0.64420057       1.03976823       0.15432772
Fe       0.77141000       5.48369000       0.61772000       0.15863900      -0.70463600       0.73580300       0.59362714      -0.71783515       0.34734453
Fe       2.70222000       5.62328000       2.66112000      -2.84701800       1.11988600      -2.77526600      -1.79588500       1.03033891      -0.88257649
Fe       2.40590000       1.49012000       0.76033000       2.44811900      -1.09619800       2.05304000       1.92259581      -0.45724984       0.74724208
Fe       0.05981000       0.25678000       4.08407000      -0.72088300      -0.40435400      -1.12965000      -0.16560543       0.01264198      -0.49253565
Fe       2.69016000       5.46683000       4.60121000      -0.81406600      -1.20768000       2.79556400      -0.34936541      -0.09087364       0.82074890
Fe       1.47386000       1.76151000       4.03878000       0.25632200       2.31886200      -0.70750300       0.88362933       1.36081983      -0.10099993
Fe       5.58209000       3.47185000       2.53703000       2.04828400       0.56513400      -0.37619200       1.53509531       0.37000554       0.60678735
Fe       2.39981000       3.74553000       0.37431000      -0.23425500       0.56240000       0.37900500       0.19593830      -0.24063298       0.29296902
Fe       4.35312000       1.55651000       2.64463000       0.99871600      -1.26274600      -2.03362100       0.26757428      -0.55754102      -1.01444867
Fe       4.71996000       4.32124000       4.97431000      -0.09930100      -2.16645100       0.36829600      -0.57935732      -2.17295953       0.09299473
Fe       4.35696000       5.05523000       1.41829000       0.42683500       0.31250100      -0.90165400      -0.29134909       0.64436936      -0.57897421
Fe       0.47139000       2.05266000       0.60057000      -2.75315200       0.98470800      -0.10508100      -1.97733875       1.14878412      -0.21014786
Fe       3.41003000       3.62129000       2.91823000      -1.42978400      -0.71560000       1.39462200      -1.19355172      -0.96282380       1.05262241
15
Lattice="5.664536 0.0 0.0 0.0 5.664536 0.0 0.0 0.0 5.664536" Properties=species:S:1:pos:R:3:REF_forces:R:3:MACE_forces:R:3 config_type=Fe13Si1B1 REF_energy=-107.93807169 MACE_energy=-51.21944246635111 pbc="T T T"
B        3.89991000       3.42526000       0.45422000       0.11547000      -0.03553900       1.12451100       0.65390413      -0.04705646       1.59283247
Si       3.48762000       0.16630000       4.61337000       0.32574800       0.46308000      -0.01786500      -0.31129687       0.09334486       0.20359819
Fe       2.84778000       1.82037000       0.82228000      -0.98232500      -1.42221600      -1.89337000      -0.72953571      -0.72804391      -1.85277301
Fe       1.34857000       0.81784000       2.30075000      -0.53643500       0.46265000      -1.19653800      -0.04152744       0.24837622      -1.12853952
Fe       1.57642000       1.26355000       4.33118000       0.04619000       0.17232100       0.29400800       0.86902688      -0.16658173       1.04239334
Fe       0.65713000       2.94926000       0.95396000      -1.72120200      -1.22782100       0.66296100      -1.50382115      -0.68773706       0.42405310
Fe       4.05988000       1.97076000       2.38888000       1.24013900      -1.25976700       1.55714700       0.70300599      -0.58924699       0.76011211
Fe       5.41523000       1.91313000       4.86891000      -2.57043500      -0.52568200      -0.40262900      -2.71428497      -0.08300449      -0.06134329
Fe       1.35795000       4.61467000       3.62292000      -1.17710100      -0.19986100       1.26666800      -0.55961204       0.31567866       0.70515784
Fe       4.95776000       4.27854000       4.85033000       2.20080800       0.77958800      -0.24901600       0.93263133       0.14348875       0.08842443
Fe       2.90817000       3.15860000       4.25698000      -0.87756600      -0.39846100       1.25184100       0.31550078      -0.38165017       0.77124891
Fe       4.97903000       5.64594000       1.36431000      -0.69131800      -0.04726100      -0.44322300      -0.85065098       0.22493319      -0.87722476
Fe       1.21860000       5.04312000       0.28941000      -0.01329800       1.97019200      -1.42146800       0.66015780       1.32878895      -1.17446778
Fe       4.19049000       3.99341000       2.69223000       2.99720200       1.59092800      -0.45710200       1.07575639       1.02367768      -0.43833642
Fe       2.24232000       4.14646000       1.80095000       1.64412400      -0.32215200      -0.07592500       1.50074586      -0.69496750      -0.05513560
15
Lattice="5.664536 0.0 0.0 0.0 5.664536 0.0 0.0 0.0 5.664536" Properties=species:S:1:pos:R:3:REF_forces:R:3:MACE_forces:R:3 config_type=Fe13Si1B1 REF_energy=-111.97852358 MACE_energy=-55.843756021335274 pbc="T T T"
B        0.06916000       5.66432000       5.18689000       0.12008200      -0.64043800       0.01360000       0.17546839      -0.87104577      -0.03118994
Si       0.02740000       2.72248000       2.59682000      -0.95092500       0.36379500       0.29566700      -0.70898825       0.31166070       0.19808331
Fe       0.14116000       5.54768000       2.85133000       0.08282300      -0.00674100       0.52027800      -0.57204617       0.27920731       0.26787318
Fe       5.56722000       2.97052000       5.53670000      -0.67309900       0.24460700       0.18564600       0.04345827      -0.13171797       0.29386539
Fe       2.56501000       0.00405000       5.40440000       0.68434000      -0.27592000       0.60718700       0.51992200      -0.25716773       0.65171117
Fe       2.97079000       2.77487000       5.60913000       0.61990200      -0.30745300       0.59180600      -0.41741814      -0.11135638       0.03469420
Fe       3.14055000       2.58779000       2.39876000      -0.26535600       0.46856000       0.15364600      -0.39001109       0.29371522       0.44727788
Fe       1.27023000       1.29362000       1.29220000       0.59662900      -0.36144800      -0.82067800      -0.07687237       0.11665332      -0.80354280
Fe       1.26884000       1.40412000       4.24821000      -0.00500300       0.79776500      -0.57479700       0.07013410       1.17542582      -0.56743634
Fe       1.43809000       4.26211000       1.36341000       0.07769500      -0.05884300      -0.22592600       0.07561714      -0.39003685      -0.17343270
Fe       1.52070000       4.14480000       4.13170000      -0.18321100      -0.27105400      -0.71528600      -0.42213435      -0.68085467      -0.47417692
Fe       4.46936000       1.09579000       0.98330000      -0.11971100       0.01004100       0.24750400       0.43042576       0.19747966       0.02817187
Fe       4.16783000       1.22547000       4.11325000       0.42899800      -0.08684700      -0.08842400       1.00979172       0.10119478       0.19668454
Fe       4.22673000       4.46813000       1.30140000       0.09689500      -0.37725000      -0.41990000       0.22708180      -0.40509292      -0.11527983
Fe       4.20815000       4.21553000       4.01300000      -0.51005900       0.50122500       0.22967700       0.03557118       0.37193547       0.04669700
15
Lattice="5.664536 0.0 0.0 0.0 5.664536 0.0 0.0 0.0 5.664536" Properties=species:S:1:pos:R:3:REF_forces:R:3:MACE_forces:R:3 config_type=Fe13Si1B1 REF_energy=-111.93959828 MACE_energy=-55.52362906616957 pbc="T T T"
B        0.52210000       0.05440000       5.04153000      -0.83789800      -0.96014800      -0.42271900      -0.39402023      -0.80292721      -0.79087570
Si       5.59498000       2.75302000       2.63746000      -0.41285400      -0.16722200       0.32382300      -0.14389308      -0.23146804      -0.16976847
Fe       0.17766000       0.05624000       2.77011000      -0.22089500       0.44737300       1.17937900      -0.40178328       0.11027567       0.90304954
Fe       5.59682000       2.78032000       5.61495000      -0.22239300       0.41310500      -0.03657000       0.04420907       0.24702417      -0.43929544
Fe       2.71989000       5.37982000       5.43745000       0.17724800       0.17436200       0.47840000      -0.55515017       0.89712258       0.18044148
Fe       2.70157000       2.72483000       5.65192000       0.89303700       0.73165300       0.81071700       0.74813677       0.59903393       0.30091525
Fe       2.97278000       2.68063000       2.60608000       0.64664100       0.39382500      -0.89779500       0.65546082       0.72673043      -0.78565846
Fe       1.04462000       1.15381000       0.98518000       0.85892600      -0.28038300       0.02628300       0.79380985       0.33453899       0.38654961
Fe       1.65813000       1.50296000       3.98982000      -0.38663100      -0.26210300      -0.11433700      -0.87031696      -0.21188656       0.45194013
Fe       1.30631000       4.30849000       1.24352000      -0.41412900       0.11159100       0.24697100      -0.37904618      -0.28836337       0.19037112
Fe       1.58576000       4.06734000       3.99489000      -1.17533100      -0.00634600      -0.85725300      -1.15858058      -0.15184066      -0.33240001
Fe       4.12820000       1.13618000       1.10587000       0.62554700       0.31979100       0.22031500       0.72460042       0.36008715       0.36958656
Fe       4.25787000       1.24949000       4.17529000      -0.08913900      -0.07677300       0.23295600       0.33672589       0.12087992       0.29626578
Fe       4.35495000       4.45297000       1.34581000      -0.13361000      -0.53467800      -0.51744000      -0.02566733      -1.03768024      -0.06608946
Fe       4.41108000       4.43949000       4.32316000       0.69148200      -0.30404700      -0.67272800       0.62551501      -0.67152676      -0.49503193
15
Lattice="5.664536 0.0 0.0 0.0 5.664536 0.0 0.0 0.0 5.664536" Properties=species:S:1:pos:R:3:REF_forces:R:3:MACE_forces:R:3 config_type=Fe13Si1B1 REF_energy=-111.86184603 MACE_energy=-53.95543365099309 pbc="T T T"
B        1.50863000       1.78767000       4.90152000      -0.44122900      -0.13378600       0.30200900       0.08270472      -0.41428467       0.21167022
Si       4.79549000       2.24346000       2.10133000      -2.02834800      -2.06166200      -2.37230900      -0.45813336      -0.53883396      -1.20994927
Fe       3.20380000       0.75276000       3.12970000      -0.26094900      -0.46491400       0.88121400       0.15547430       0.14526048       1.42944701
Fe       2.86828000       3.52346000       0.83472000       0.63525800      -0.40693500      -0.10677300       0.24663535      -0.72618947      -0.48507232
Fe       0.30208000       0.41203000       3.59178000       0.43152100       1.99959300       0.71104900       0.22638199       1.52193054       0.00539870
Fe       4.64149000       4.82814000       4.64319000      -2.32204000      -0.32641000       1.26424000      -2.38797509       0.29962630       0.74283586
Fe       1.38623000       5.04883000       1.95913000       0.13404600      -0.76597900       0.26900800       0.30449066      -0.95003581       0.48164516
Fe       0.01651000       0.69762000       0.56316000       0.43357300       0.50429600      -0.59615700       0.33645665       0.74795098      -0.34311952
Fe       1.71843000       1.81951000       1.96274000      -0.50569400       0.44278300      -1.08150200      -1.46723829       0.55302132      -0.62630165
Fe       2.49328000       3.31853000       3.75571000       0.60663900       0.53722000       0.22889400       0.54362291       0.13614275       0.44891033
Fe       0.35204000       3.39611000       0.17394000       0.28417100      -0.58935200       0.45847800       0.41161014      -0.76210689       1.09243529
Fe       0.11270000       3.44811000       3.40342000       2.52442400       0.78461300       1.86263000       1.28917536      -0.23444283       0.15353494
Fe       4.37430000       4.86511000       1.96411000       0.02203300      -0.44143500      -0.21812100       0.92503067      -0.65493443       0.15769894
Fe       1.91304000       5.29856000       5.45252000       0.85584700       1.12077600      -1.36953800       0.63869265       0.84025424      -1.80161483
Fe       3.73798000       1.56980000       5.38787000      -0.36925300      -0.19880800      -0.23312100      -0.84692867       0.03664145      -0.25751886
15
Lattice="5.664536 0.0 0.0 0.0 5.664536 0.0 0.0 0.0 5.664536" Properties=species:S:1:pos:R:3:REF_forces:R:3:MACE_forces:R:3 config_type=Fe13Si1B1 REF_energy=-121.96103282 MACE_energy=-54.04581665078324 pbc="T T T"
B        1.89945000       0.62627000       3.85277000      -2.50069800       2.16966800      -1.53918900      -1.33752676       1.31275840       0.20128314
Si       0.20120000       2.04269000       2.64503000       1.02931600      -0.66199100      -2.72694900       0.18161086      -0.28403842      -1.07011616
Fe       2.66066000       5.42797000       2.26357000       0.53979700      -0.03646200      -1.31830900       0.47619308      -0.59512027      -0.74547840
Fe       2.90276000       2.67008000       2.15492000      -1.83815700      -0.38139400      -2.84113500      -1.58304370       0.16718823      -1.11663081
Fe       3.76617000       1.41579000       3.61058000       1.59818700      -1.99316500       0.96094000       1.75224735      -0.64152517       0.44726747
Fe       4.35629000       3.78643000       3.20548000      -0.08184500       1.05317100       0.76552100      -0.30973186       0.41366044       0.61450779
Fe       4.47628000       4.06991000       0.64852000      -0.83953300      -0.22453300       0.86736600      -1.02840168       0.02950258       0.19397953
Fe       4.19523000       1.12987000       0.84517000       0.20926900       0.78044000      -1.95195400       0.44602973       0.03581214      -0.60171379
Fe       1.20944000       0.98558000       0.54562000       0.36331500       0.64694800       1.15320100       0.38512450       0.55788397       0.33504812
Fe       2.93679000       5.24715000       4.85612000       1.78737200      -1.05335100       3.04321700       0.30848200      -0.20902837       0.85023918
Fe       2.46429000       3.02068000       4.78866000      -0.08418600      -0.93215200       0.71303400       0.01764311      -0.89700843       0.05560648
Fe       5.64539000       2.77685000       4.69631000       0.33002600      -0.76378800       3.33994500       0.48617581      -0.59743775       1.16359965
Fe       1.14045000       3.92385000       0.99225000      -0.27335200       0.02348800       0.25089500       0.18373376       0.15280713      -0.36729463
Fe       0.17432000       5.38924000       4.59788000      -0.87103600      -0.20642700       0.99417600      -0.63193838      -0.51076129       0.61019977
Fe       5.41134000       5.44443000       2.36685000       0.63152700       1.57954900      -1.71076000       0.65340216       1.06530683      -0.57049734
15
Lattice="5.664536 0.0 0.0 0.0 5.664536 0.0 0.0 0.0 5.664536" Properties=species:S:1:pos:R:3:REF_forces:R:3:MACE_forces:R:3 config_type=Fe13Si1B1 REF_energy=-109.57699008 MACE_energy=-53.71697467110402 pbc="T T T"
B        1.60964000       1.20953000       3.30762000      -0.01479600      -0.54483200       0.36412700      -0.06472137      -0.04395425      -0.02809695
Si       1.95419000       3.78303000       0.40477000       2.58923000       0.78612200      -1.61162900       1.16525521       0.00141108      -0.31813824
Fe       3.57229000       4.89724000       1.78218000      -0.69680300       0.94883800       2.04020100      -0.69979647       0.41215918       0.85402919
Fe       3.21513000       2.00319000       1.86162000       1.30615200      -1.04311700      -1.34636300       0.71610938      -0.53206410      -0.36093790
Fe       5.12136000       1.05340000       3.05836000       0.48907600      -0.57242700       0.35981000       0.64435837      -0.89295320       0.43475088
Fe       5.33303000       3.41064000       3.19935000      -1.19050900       0.64225800       0.16946300      -0.68650697       0.46961393      -0.10554440
Fe       4.69645000       3.56410000       0.59057000       0.42357200      -2.45414500       1.39631500       0.85092779      -1.49651914       0.79862860
Fe       5.00397000       0.79608000       0.67759000       0.28054300       1.18762000       0.69531900      -0.37613541       0.30140322       0.12033407
Fe       1.02131000       2.39370000       1.67631000      -1.48205000      -1.99677700       1.89497700      -0.70577029      -0.37579122       0.56901834
Fe       4.49205000       4.87623000       4.87240000      -1.22864200       1.13873400      -2.26444700      -0.99373050       0.70979648      -1.21415955
Fe       3.40200000       1.47027000       4.46233000      -0.01871000      -0.18409200       0.67173000       0.04019567      -0.58865715       0.85316779
Fe       0.59504000       2.14210000       5.17631000       0.66645200      -0.32293300      -3.32851400       0.95028265      -0.10626590      -2.45998741
Fe       1.14446000       5.07983000       4.43636000      -0.37358200       1.06798600      -0.87155500      -0.21912871       0.64724142      -0.49619030
Fe       2.52599000       3.18146000       3.48749000      -0.80261000       1.79870400       1.25168000      -1.03111070       1.79197604       0.70239082
Fe       0.91985000       5.18762000       1.86613000       0.05267700      -0.45193900       0.57888600       0.40977138      -0.29739640       0.65073505
15
Lattice="5.664536 0.0 0.0 0.0 5.664536 0.0 0.0 0.0 5.664536" Properties=species:S:1:pos:R:3:REF_forces:R:3:MACE_forces:R:3 config_type=Fe13Si1B1 REF_energy=-111.24757227 MACE_energy=-54.463380507255934 pbc="T T T"
B        2.53656000       2.62317000       3.66583000      -0.11566700      -0.22978700       0.53017200       0.14558337       0.36366870       0.48794029
Si       0.67483000       4.27329000       2.69225000       0.92910600       0.68145900       0.71622000       0.78537163       0.06506207       0.08609986
Fe       5.14560000       5.37767000       1.05479000      -0.04263700       0.54874800      -0.34508500      -0.35589826       0.18314418       0.25540401
Fe       5.17725000       2.96978000       1.28337000      -0.94481700       0.15150400      -1.65556500      -0.96109228       0.35126136      -0.82933564
Fe       4.74580000       3.13666000       4.02461000      -0.25444200      -0.82574700      -0.11998600      -0.22095179      -0.55256492      -0.71038248
Fe       0.33821000       1.51110000       2.57588000       1.22080500      -1.49602800       0.46012600       1.48927840      -0.72302599       0.71830757
Fe       3.09808000       4.41167000       2.55098000       1.58954700      -0.62340300      -0.59486000       1.48717190      -0.85198448      -0.24575954
Fe       4.73088000       0.16933000       4.32731000       1.21238200      -0.98254900      -0.92008400       0.59640379      -1.09260033      -0.84259371
Fe       3.65998000       1.37781000       0.06620000      -0.53114300       0.39644200       0.40797800      -0.60703741       1.29072046      -0.45786622
Fe       3.63898000       1.27668000       2.55773000      -0.56432500       0.60761700      -1.09420600      -0.22109529       0.18680789      -0.78955724
Fe       3.30156000       4.03302000       5.51710000       0.66273100       0.68309200      -0.51252300       0.72307697       0.43511032      -0.60480696
Fe       2.04972000       2.93776000       1.03536000      -1.23701100      -0.98796000       1.66434700      -1.01769424      -0.75818755       1.75632582
Fe       2.16302000       5.60665000       3.99134000      -0.76618900       1.59088200       1.80303200      -0.54496446       1.12924578       0.88062961
Fe       0.95543000       1.84266000       4.95473000       0.27866900      -0.07002100       0.06014100      -0.09273781      -0.42402421       0.15699498
Fe       2.02568000       0.02468000       0.99960000      -1.43701000       0.55575000      -0.39970700      -1.20541453       0.39736670       0.13859964
15
Lattice="5.664536 0.0 0.0 0.0 5.664536 0.0 0.0 0.0 5.664536" Properties=species:S:1:pos:R:3:REF_forces:R:3:MACE_forces:R:3 config_type=Fe13Si1B1 REF_energy=-108.79062395 MACE_energy=-53.38549305367634 pbc="T T T"
B        5.36400000       3.87568000       4.45905000       0.44648400       0.57032200       0.28604800       0.06363251       0.50102825      -0.20195360
Si       3.93387000       4.96403000       3.15711000      -4.30606800      -2.31482200      -2.68264300      -1.16664740      -0.81047638      -1.05388740
Fe       3.00216000       0.92096000       1.44117000      -0.76996800       0.42082500      -0.07835300      -0.13712744       0.11769783       0.02674002
Fe       1.34518000       5.62588000       2.73234000       2.41172500       0.19969700       0.20083700       1.97379157      -0.54747223       0.53728959
Fe       0.44730000       2.09377000       4.98703000       1.17940300       0.68255400       0.66504100       1.14060726       0.44577678      -0.28705084
Fe       0.30923000       3.79563000       2.39919000      -0.97580900      -1.20085800      -1.00234600      -0.69840204       0.25280979      -0.16990006
Fe       0.18648000       1.06356000       1.31692000      -0.60348600       1.79501500       0.12312700      -0.21404963       1.21314643       0.33742810
Fe       4.00265000       2.83038000       0.00570000       0.03088500      -0.70677300      -0.45368100       0.07763308      -0.58964527      -0.21042366
Fe       5.37135000       0.30945000       4.05759000       2.43746500       1.21842000       2.05861100      -0.57524328      -0.19407161       0.66728416
Fe       2.32985000       3.12186000       1.52540000       0.40818200       0.55373600       0.67629300      -0.13108199       0.75237003       0.42049942
Fe       2.77320000       0.82160000       4.63749000       0.11143500       0.28254000       0.06072400       0.56843588       0.28227918      -0.40718131
Fe       1.20304000       4.94889000       5.64649000       0.50304000      -0.54997900       0.60819900      -0.32133165      -0.01038111       1.02405643
Fe       4.43330000       2.29054000       2.94368000      -1.10290800       0.42652200       0.72577900      -0.97640598       0.31841489       1.16987091
Fe       4.45738000       5.14386000       0.73674000       0.07827300      -0.88309100      -1.20270400       0.30925654      -1.55273713      -0.97764790
Fe       2.20236000       3.55424000       4.11335000       0.15134500      -0.49410700       0.01507000       0.08693257      -0.17873943      -0.87512385
15
Lattice="5.664536 0.0 0.0 0.0 5.664536 0.0 0.0 0.0 5.664536" Properties=species:S:1:pos:R:3:REF_forces:R:3:MACE_forces:R:3 config_type=Fe13Si1B1 REF_energy=113.06017811 MACE_energy=-52.996851736537316 pbc="T T T"
B        1.39848000       0.19193000       0.61048000      -4.08297800       9.29302800       8.69098400       0.39566444       0.71973167       1.16992626
Si       2.92490000       2.16030000       2.14060000      -2.63496600       9.58037000      -0.49561900       0.05017682      -0.36771757       0.20821876
Fe       2.86073000       2.70503000       5.26584000       4.32356800      10.20896900      -4.70309300       1.13804968      -1.14430002      -0.63463976
Fe       4.47802000       3.64784000       3.04881000      -8.75739200       8.66530300      12.20431400      -0.18002490      -0.01111973       2.17394303
Fe       0.21576000       2.05514000       5.23160000     -18.24380600     -12.70694800      22.88283100       1.87036949       0.15062434      -0.43813310
Fe       0.44166000       2.36030000       2.32519000       9.91181000      13.04098500      -5.34425400       0.82779932      -0.59255850      -0.45138408
Fe       2.03954000       3.82953000       1.07367000      -9.51630500       5.90074000      24.04305300      -1.49819914       0.97258924       0.59210951
Fe       1.39295000       3.86962000       3.86875000       5.08493300      -5.56046400     -11.44166200       0.49643492      -0.26364276      -0.34979892
Fe       4.42805000       1.04262000       3.76613000      10.93879500       4.90624100      -3.25114800      -0.67755538       1.09942685       0.17990981
Fe       4.44753000       1.10914000       0.85325000      15.14670800      12.45203200      -7.47268500      -0.20591730      -0.03588816       0.44258764
Fe       3.06886000       5.29358000       5.21060000      31.03933500     -34.73641400       1.35306500       0.36214411      -0.54671368      -0.38934562
Fe       4.80801000       3.61880000       0.94850000       7.81841300       1.86551900       0.92546600      -1.50080134       0.11345824      -0.51751285
Fe       0.75179000       0.26400000       3.08937000     -19.58866100       1.56533600      18.55626500       0.77927277      -0.31494910      -0.57349463
Fe       3.22665000       5.43114000       2.39493000      -7.30714900       7.24190400      -9.20324300      -1.37570464      -0.04125061      -0.54929379
Fe       0.02250000       5.10600000       5.27962000     -14.13230600     -31.71660300     -46.74427400      -0.48170887       0.26230980      -0.86309226
15
Lattice="5.664536 0.0 0.0 0.0 5.664536 0.0 0.0 0.0 5.664536" Properties=species:S:1:pos:R:3:REF_forces:R:3:MACE_forces:R:3 config_type=Fe13Si1B1 REF_energy=-108.9830283 MACE_energy=-53.243191803482134 pbc="T T T"
B        0.13992000       2.30465000       0.77632000      -2.78401400      -0.82058500       0.46110900      -1.33482784      -0.86919541       0.63646547
Si       2.50353000       2.08237000       3.22653000       0.57446500       0.76610200      -0.17485000       0.19763869       0.34514918      -0.28851026
Fe       1.09387000       3.72736000       2.17845000      -2.33299800      -0.65384800       2.12861500      -1.45239783      -0.60248623       0.44830548
Fe       3.95659000       1.68198000       5.11388000       0.36857700       0.27726400       0.90410800       0.43751680       0.11975058       1.22328505
Fe       3.24055000       0.05102000       1.45794000       1.85872300       1.81044900       1.22583000       0.35513191       1.29177406       0.82203732
Fe       1.11690000       0.40651000       2.78471000       0.23956900      -0.40930100      -0.23173800       0.36418008       0.18193143      -0.37568804
Fe       4.54933000       5.58716000       3.59286000      -0.31901000      -1.37235600       0.15251700       0.26953805      -0.94502649      -0.09961522
Fe       2.02209000       2.17177000       0.81391000       2.28654300       0.57567400       0.95002900       0.62302784       0.02617990       0.89822709
Fe       2.49600000       4.37528000       3.91048000       1.01885200       0.91593900      -0.12431400      -0.07441563      -0.07660889       0.07759028
Fe       1.55562000       0.82810000       4.97050000      -1.41574600      -0.55119900      -1.41023600      -0.22800825       0.32578088      -0.43705451