15
Lattice="5.664536 0.0 0.0 0.0 5.664536 0.0 0.0 0.0 5.664536" Properties=species:S:1:pos:R:3:REF_forces:R:3:MACE_forces:R:3 config_type=Fe13Si1B1 REF_energy=-108.19731369 MACE_energy=-100.44493959660699 pbc="T T T"
B        4.05901000       2.70568000       1.01305000      -1.63855300      -0.82904000       0.73367400      -1.39772708      -0.94298706       0.38364310
Si       2.82856000       0.10655000       3.62968000      -1.37485700       1.04288500       1.12851000      -1.53904677       0.63372823       0.84702788
Fe       2.58297000       1.18377000       1.20948000       0.93367000       0.14656100       0.38941200       0.36757984      -0.05689085      -0.10579862
Fe       0.38153000       0.68989000       3.08804000       0.88723900       3.84366500       0.15858400       0.54659507       1.13138658      -0.27956324
Fe       1.54589000       2.38203000       4.72041000      -2.07199500      -0.40415400      -0.21731400      -1.41428749      -0.72875900      -0.31362436
Fe       0.00965000       3.55673000       0.57847000       1.87002200       0.46818400      -0.57360300       1.23758451       0.37422461      -0.68296408
Fe       4.86453000       2.71686000       2.75028000       1.57660800      -1.70083300       1.51404400       1.27815458      -1.06346708       1.56238311
Fe       4.62966000       0.98828000       5.06676000       0.07922500       1.31640700       1.29952100       0.09180664       0.78153338       0.23411522
Fe       0.62475000       4.47163000       2.76945000       1.95380600      -3.21231900      -1.53544400       1.01701296      -0.80868461       0.12502498
Fe       4.87774000       4.67993000       4.41653000      -0.64493200      -0.53503200       0.30435400       0.15373134      -0.09953852       0.64934940
Fe       3.59664000       2.87221000       4.83153000       0.23532500      -0.37357900      -1.60523300       0.09549937      -0.12952507      -0.38418867
Fe       0.66156000       0.50203000       0.73880000      -0.79576700      -0.85035100      -0.29863700      -0.76645121      -0.18772964      -0.31694943
Fe       2.16986000       4.37529000       0.15492000      -0.00013300       0.94038800       0.69583500       0.40182605       0.45913590       0.07701348
Fe       3.84648000       4.71531000       2.05312000       0.75417200       0.77170900      -2.19861800       0.92924737       0.75536934      -1.22521677
Fe       2.60819000       2.98871000       2.55518000      -1.76382900      -0.62449100       0.20491400      -1.00152518      -0.11779621      -0.57025201
15
Lattice="5.664536 0.0 0.0 0.0 5.664536 0.0 0.0 0.0 5.664536" Properties=species:S:1:pos:R:3:REF_forces:R:3:MACE_forces:R:3 config_type=Fe13Si1B1 REF_energy=-108.15566798 MACE_energy=-100.11164005151949 pbc="T T T"
B        4.14873000       2.95379000       1.06658000       0.16200100      -0.29917000      -0.39394100       0.35212344      -0.17469811      -0.21222648
Si       3.70970000       1.75376000       4.70342000       2.39954500       1.99334400       0.69658000       1.03755612       1.28264376       0.45833760
Fe       0.77141000       5.48369000       0.61772000       0.15863900      -0.70463600       0.73580300       0.03623583      -0.24902952       0.82207025
Fe       2.70222000       5.62328000       2.66112000      -2.84701800       1.11988600      -2.77526600      -1.03090842      -0.05425838      -0.94072804
Fe       2.40590000       1.49012000       0.76033000       2.44811900      -1.09619800       2.05304000       0.67431200      -0.47917492       1.44794410
Fe       0.05981000       0.25678000       4.08407000      -0.72088300      -0.40435400      -1.12965000       0.03526026      -0.32835625      -0.57603123
Fe       2.69016000       5.46683000       4.60121000      -0.81406600      -1.20768000       2.79556400      -0.15794133      -0.66881862       0.53798250
Fe       1.47386000       1.76151000       4.03878000       0.25632200       2.31886200      -0.70750300      -0.17706157       1.41647177      -0.65834912
Fe       5.58209000       3.47185000       2.53703000       2.04828400       0.56513400      -0.37619200       1.46863416       0.81446697       0.35603506
Fe       2.39981000       3.74553000       0.37431000      -0.23425500       0.56240000       0.37900500      -0.58049625       0.10173568      -0.00791791
Fe       4.35312000       1.55651000       2.64463000       0.99871600      -1.26274600      -2.03362100       0.53621327      -0.40253486      -0.92525743
Fe       4.71996000       4.32124000       4.97431000      -0.09930100      -2.16645100       0.36829600       0.41029666      -1.55611772      -0.15461244
Fe       4.35696000       5.05523000       1.41829000       0.42683500       0.31250100      -0.90165400       0.10934813       0.55966884      -0.23328296
Fe       0.47139000       2.05266000       0.60057000      -2.75315200       0.98470800      -0.10508100      -1.43325759       0.26105793      -0.26037428
Fe       3.41003000       3.62129000       2.91823000      -1.42978400      -0.71560000       1.39462200      -1.28031469      -0.52305658       0.34641039
15
Lattice="5.664536 0.0 0.0 0.0 5.664536 0.0 0.0 0.0 5.664536" Properties=species:S:1:pos:R:3:REF_forces:R:3:MACE_forces:R:3 config_type=Fe13Si1B1 REF_energy=-107.93807169 MACE_energy=-99.49982971490908 pbc="T T T"
B        3.89991000       3.42526000       0.45422000       0.11547000      -0.03553900       1.12451100       0.07292306      -0.24302666       1.44648421
Si       3.48762000       0.16630000       4.61337000       0.32574800       0.46308000      -0.01786500       0.01920536       0.48828123       0.12138013
Fe       2.84778000       1.82037000       0.82228000      -0.98232500      -1.42221600      -1.89337000      -0.40259028      -1.63674278      -0.56744925
Fe       1.34857000       0.81784000       2.30075000      -0.53643500       0.46265000      -1.19653800      -0.15384834       0.71120567      -0.29777916
Fe       1.57642000       1.26355000       4.33118000       0.04619000       0.17232100       0.29400800       0.03971692       0.58441597       0.07796829
Fe       0.65713000       2.94926000       0.95396000      -1.72120200      -1.22782100       0.66296100      -1.18565818      -0.36294590       0.44234148
Fe       4.05988000       1.97076000       2.38888000       1.24013900      -1.25976700       1.55714700       0.75624269      -0.57935414       0.67751338
Fe       5.41523000       1.91313000       4.86891000      -2.57043500      -0.52568200      -0.40262900      -1.25927280      -0.43573672       0.11211411
Fe       1.35795000       4.61467000       3.62292000      -1.17710100      -0.19986100       1.26666800      -0.38019233      -0.19524857      -0.06908248
Fe       4.95776000       4.27854000       4.85033000       2.20080800       0.77958800      -0.24901600       1.65698992       0.41684308      -1.06467437
Fe       2.90817000       3.15860000       4.25698000      -0.87756600      -0.39846100       1.25184100      -0.59074861      -0.14694563       0.19669970
Fe       4.97903000       5.64594000       1.36431000      -0.69131800      -0.04726100      -0.44322300      -0.36485144       0.29434157      -0.35960532
Fe       1.21860000       5.04312000       0.28941000      -0.01329800       1.97019200      -1.42146800       0.11238317       0.75748229      -0.50160244
Fe       4.19049000       3.99341000       2.69223000       2.99720200       1.59092800      -0.45710200       0.95359896       0.76006435      -0.34598593
Fe       2.24232000       4.14646000       1.80095000       1.64412400      -0.32215200      -0.07592500       0.72610189      -0.41263376       0.13167764
15
Lattice="5.664536 0.0 0.0 0.0 5.664536 0.0 0.0 0.0 5.664536" Properties=species:S:1:pos:R:3:REF_forces:R:3:MACE_forces:R:3 config_type=Fe13Si1B1 REF_energy=-111.97852358 MACE_energy=-103.11346935668598 pbc="T T T"
B        0.06916000       5.66432000       5.18689000       0.12008200      -0.64043800       0.01360000       0.11002496      -0.64135356       0.24644953
Si       0.02740000       2.72248000       2.59682000      -0.95092500       0.36379500       0.29566700      -0.74650404       0.28811919       0.13303193
Fe       0.14116000       5.54768000       2.85133000       0.08282300      -0.00674100       0.52027800       0.13722230      -0.00080236       0.14890467
Fe       5.56722000       2.97052000       5.53670000      -0.67309900       0.24460700       0.18564600       0.19642126       0.26745174       0.15315836
Fe       2.56501000       0.00405000       5.40440000       0.68434000      -0.27592000       0.60718700      -0.06460259      -0.19430753       0.07555082
Fe       2.97079000       2.77487000       5.60913000       0.61990200      -0.30745300       0.59180600      -0.65842803      -0.02399602      -0.11038682
Fe       3.14055000       2.58779000       2.39876000      -0.26535600       0.46856000       0.15364600      -0.60591186       0.01144699       0.86731763
Fe       1.27023000       1.29362000       1.29220000       0.59662900      -0.36144800      -0.82067800       0.58018668      -0.11945701       0.05137454
Fe       1.26884000       1.40412000       4.24821000      -0.00500300       0.79776500      -0.57479700       0.86033483       0.41136432      -1.05083711
Fe       1.43809000       4.26211000       1.36341000       0.07769500      -0.05884300      -0.22592600       0.12460390       0.06473137       0.05718108
Fe       1.52070000       4.14480000       4.13170000      -0.18321100      -0.27105400      -0.71528600       0.13370610      -0.20685597      -0.68170497
Fe       4.46936000       1.09579000       0.98330000      -0.11971100       0.01004100       0.24750400       0.00063507      -0.36884996       0.48386218
Fe       4.16783000       1.22547000       4.11325000       0.42899800      -0.08684700      -0.08842400      -0.07477306       0.21702097      -0.47100644
Fe       4.22673000       4.46813000       1.30140000       0.09689500      -0.37725000      -0.41990000       0.01129733       0.11936540       0.03626309
Fe       4.20815000       4.21553000       4.01300000      -0.51005900       0.50122500       0.22967700      -0.00421285       0.17612243       0.06084151
15
Lattice="5.664536 0.0 0.0 0.0 5.664536 0.0 0.0 0.0 5.664536" Properties=species:S:1:pos:R:3:REF_forces:R:3:MACE_forces:R:3 config_type=Fe13Si1B1 REF_energy=-111.93959828 MACE_energy=-102.70714509600484 pbc="T T T"
B        0.52210000       0.05440000       5.04153000      -0.83789800      -0.96014800      -0.42271900      -0.44417260      -0.37867992      -0.35036761
Si       5.59498000       2.75302000       2.63746000      -0.41285400      -0.16722200       0.32382300      -0.43727355      -0.27372874      -0.06001330
Fe       0.17766000       0.05624000       2.77011000      -0.22089500       0.44737300       1.17937900      -0.02788456       0.31268768       0.10165502
Fe       5.59682000       2.78032000       5.61495000      -0.22239300       0.41310500      -0.03657000      -0.02803427       0.00105870      -0.18740063
Fe       2.71989000       5.37982000       5.43745000       0.17724800       0.17436200       0.47840000      -0.07802430       0.21816270       0.03985899
Fe       2.70157000       2.72483000       5.65192000       0.89303700       0.73165300       0.81071700       1.00795055       0.34346441      -0.08780338
Fe       2.97278000       2.68063000       2.60608000       0.64664100       0.39382500      -0.89779500       0.26237079       0.39224157      -0.25515112
Fe       1.04462000       1.15381000       0.98518000       0.85892600      -0.28038300       0.02628300       0.87923427       0.60774167       0.77844802
Fe       1.65813000       1.50296000       3.98982000      -0.38663100      -0.26210300      -0.11433700      -0.35781130      -0.22424505      -0.10289729
Fe       1.30631000       4.30849000       1.24352000      -0.41412900       0.11159100       0.24697100       0.50926902      -0.25110520       0.34146715
Fe       1.58576000       4.06734000       3.99489000      -1.17533100      -0.00634600      -0.85725300      -0.25167848       0.51100659      -0.19461126
Fe       4.12820000       1.13618000       1.10587000       0.62554700       0.31979100       0.22031500      -0.27522381      -0.08003707       0.69387330
Fe       4.25787000       1.24949000       4.17529000      -0.08913900      -0.07677300       0.23295600       0.31138678       0.20726068      -0.39542241
Fe       4.35495000       4.45297000       1.34581000      -0.13361000      -0.53467800      -0.51744000      -0.71341196      -0.34274750       0.36291209
Fe       4.41108000       4.43949000       4.32316000       0.69148200      -0.30404700      -0.67272800      -0.35669658      -1.04308053      -0.68454756
15
Lattice="5.664536 0.0 0.0 0.0 5.664536 0.0 0.0 0.0 5.664536" Properties=species:S:1:pos:R:3:REF_forces:R:3:MACE_forces:R:3 config_type=Fe13Si1B1 REF_energy=-111.86184603 MACE_energy=-102.49155649941889 pbc="T T T"
B        1.50863000       1.78767000       4.90152000      -0.44122900      -0.13378600       0.30200900       0.07584899      -0.04130817       0.09978072
Si       4.79549000       2.24346000       2.10133000      -2.02834800      -2.06166200      -2.37230900      -1.20897544      -1.02441060      -1.63660415
Fe       3.20380000       0.75276000       3.12970000      -0.26094900      -0.46491400       0.88121400       0.02317979      -0.12327610       0.61604280
Fe       2.86828000       3.52346000       0.83472000       0.63525800      -0.40693500      -0.10677300       0.66114642      -0.13230774      -0.11757756
Fe       0.30208000       0.41203000       3.59178000       0.43152100       1.99959300       0.71104900       0.06014945       1.38191521      -0.00072859
Fe       4.64149000       4.82814000       4.64319000      -2.32204000      -0.32641000       1.26424000      -1.83885247      -0.63686622       0.91698396
Fe       1.38623000       5.04883000       1.95913000       0.13404600      -0.76597900       0.26900800       0.46895946      -0.71003905       0.48659951
Fe       0.01651000       0.69762000       0.56316000       0.43357300       0.50429600      -0.59615700      -0.07004542       0.17437315      -0.26316228
Fe       1.71843000       1.81951000       1.96274000      -0.50569400       0.44278300      -1.08150200      -0.30775489       0.55450166      -0.95159521
Fe       2.49328000       3.31853000       3.75571000       0.60663900       0.53722000       0.22889400       0.72211768       0.58283241       0.31772161
Fe       0.35204000       3.39611000       0.17394000       0.28417100      -0.58935200       0.45847800      -0.56229373      -0.65216149       0.53463105
Fe       0.11270000       3.44811000       3.40342000       2.52442400       0.78461300       1.86263000       1.30009499       0.43903203       1.52489234
Fe       4.37430000       4.86511000       1.96411000       0.02203300      -0.44143500      -0.21812100      -0.59235647      -0.73506282      -0.55727833
Fe       1.91304000       5.29856000       5.45252000       0.85584700       1.12077600      -1.36953800       1.21295393       0.55872923      -1.09989647
Fe       3.73798000       1.56980000       5.38787000      -0.36925300      -0.19880800      -0.23312100       0.05582770       0.36404850       0.13019060
15
Lattice="5.664536 0.0 0.0 0.0 5.664536 0.0 0.0 0.0 5.664536" Properties=species:S:1:pos:R:3:REF_forces:R:3:MACE_forces:R:3 config_type=Fe13Si1B1 REF_energy=-121.96103282 MACE_energy=-102.48203878894182 pbc="T T T"
B        1.89945000       0.62627000       3.85277000      -2.50069800       2.16966800      -1.53918900      -2.39554992       2.08973119      -0.88352216
Si       0.20120000       2.04269000       2.64503000       1.02931600      -0.66199100      -2.72694900       1.12415206       0.11644971      -1.51291386
Fe       2.66066000       5.42797000       2.26357000       0.53979700      -0.03646200      -1.31830900       0.14434899      -0.85687929      -1.02741010
Fe       2.90276000       2.67008000       2.15492000      -1.83815700      -0.38139400      -2.84113500      -1.65786803      -0.09151457      -0.99439153
Fe       3.76617000       1.41579000       3.61058000       1.59818700      -1.99316500       0.96094000       0.81269050      -0.82893798       0.90225737
Fe       4.35629000       3.78643000       3.20548000      -0.08184500       1.05317100       0.76552100       0.10371718       0.37518642       0.38798241
Fe       4.47628000       4.06991000       0.64852000      -0.83953300      -0.22453300       0.86736600      -0.81668412      -0.22956180      -0.15773617
Fe       4.19523000       1.12987000       0.84517000       0.20926900       0.78044000      -1.95195400       0.28629746       0.78125270      -1.25597310
Fe       1.20944000       0.98558000       0.54562000       0.36331500       0.64694800       1.15320100       0.67454150       1.09754965       0.14787941
Fe       2.93679000       5.24715000       4.85612000       1.78737200      -1.05335100       3.04321700       1.36769476      -1.98125465       2.17813964
Fe       2.46429000       3.02068000       4.78866000      -0.08418600      -0.93215200       0.71303400       0.27574237      -0.56008074       0.71758626
Fe       5.64539000       2.77685000       4.69631000       0.33002600      -0.76378800       3.33994500      -0.16807438      -0.29609029       1.39578978
Fe       1.14045000       3.92385000       0.99225000      -0.27335200       0.02348800       0.25089500       0.20440467      -0.03119459      -0.36617632
Fe       0.17432000       5.38924000       4.59788000      -0.87103600      -0.20642700       0.99417600      -0.49829427       0.38459815       0.59052791
Fe       5.41134000       5.44443000       2.36685000       0.63152700       1.57954900      -1.71076000       0.54288124       0.03074610      -0.12203956
15
Lattice="5.664536 0.0 0.0 0.0 5.664536 0.0 0.0 0.0 5.664536" Properties=species:S:1:pos:R:3:REF_forces:R:3:MACE_forces:R:3 config_type=Fe13Si1B1 REF_energy=-109.57699008 MACE_energy=-101.86942324242918 pbc="T T T"
B        1.60964000       1.20953000       3.30762000      -0.01479600      -0.54483200       0.36412700       0.16853199      -0.32131570       0.25630154
Si       1.95419000       3.78303000       0.40477000       2.58923000       0.78612200      -1.61162900       1.54537822       0.84512421      -1.19109861
Fe       3.57229000       4.89724000       1.78218000      -0.69680300       0.94883800       2.04020100      -0.08526718       0.45713725       0.83950580
Fe       3.21513000       2.00319000       1.86162000       1.30615200      -1.04311700      -1.34636300       0.32371633      -0.34601085      -0.71063298
Fe       5.12136000       1.05340000       3.05836000       0.48907600      -0.57242700       0.35981000      -0.13944362      -0.76035333       0.69196915
Fe       5.33303000       3.41064000       3.19935000      -1.19050900       0.64225800       0.16946300      -1.13309935       0.02500289      -0.06827039
Fe       4.69645000       3.56410000       0.59057000       0.42357200      -2.45414500       1.39631500       0.09382506      -0.55233091       0.04254435
Fe       5.00397000       0.79608000       0.67759000       0.28054300       1.18762000       0.69531900       0.03226886      -0.48394813      -0.54325748
Fe       1.02131000       2.39370000       1.67631000      -1.48205000      -1.99677700       1.89497700      -0.52234121      -0.93746618       0.91041680
Fe       4.49205000       4.87623000       4.87240000      -1.22864200       1.13873400      -2.26444700      -0.63713689       0.22442540      -0.92895996
Fe       3.40200000       1.47027000       4.46233000      -0.01871000      -0.18409200       0.67173000      -0.08336527      -0.12002658       0.58861992
Fe       0.59504000       2.14210000       5.17631000       0.66645200      -0.32293300      -3.32851400       0.56299152      -0.80814179      -1.10351412
Fe       1.14446000       5.07983000       4.43636000      -0.37358200       1.06798600      -0.87155500      -0.16276650       1.42920580       0.26320010
Fe       2.52599000       3.18146000       3.48749000      -0.80261000       1.79870400       1.25168000       0.02576861       1.33397776       1.18906843
Fe       0.91985000       5.18762000       1.86613000       0.05267700      -0.45193900       0.57888600       0.01093942       0.01472015      -0.23589255
15
Lattice="5.664536 0.0 0.0 0.0 5.664536 0.0 0.0 0.0 5.664536" Properties=species:S:1:pos:R:3:REF_forces:R:3:MACE_forces:R:3 config_type=Fe13Si1B1 REF_energy=-111.24757227 MACE_energy=-102.81067787046715 pbc="T T T"
B        2.53656000       2.62317000       3.66583000      -0.11566700      -0.22978700       0.53017200      -0.17166360      -0.12105678       0.22457912
Si       0.67483000       4.27329000       2.69225000       0.92910600       0.68145900       0.71622000       0.52353614       0.50707968       0.59753029
Fe       5.14560000       5.37767000       1.05479000      -0.04263700       0.54874800      -0.34508500      -0.17985721       0.06074240      -0.24018331
Fe       5.17725000       2.96978000       1.28337000      -0.94481700       0.15150400      -1.65556500      -0.91231282       0.22965322      -0.98528013
Fe       4.74580000       3.13666000       4.02461000      -0.25444200      -0.82574700      -0.11998600      -0.06087063       0.01125809       0.51574301
Fe       0.33821000       1.51110000       2.57588000       1.22080500      -1.49602800       0.46012600       1.61041704      -0.69114947      -0.01971019
Fe       3.09808000       4.41167000       2.55098000       1.58954700      -0.62340300      -0.59486000       1.15548854      -0.65433061      -0.28791262
Fe       4.73088000       0.16933000       4.32731000       1.21238200      -0.98254900      -0.92008400       0.77437669      -0.83967557      -0.66573278
Fe       3.65998000       1.37781000       0.06620000      -0.53114300       0.39644200       0.40797800      -0.53824791       0.28016907      -0.76348395
Fe       3.63898000       1.27668000       2.55773000      -0.56432500       0.60761700      -1.09420600      -0.40724155       0.56477357      -0.10478113
Fe       3.30156000       4.03302000       5.51710000       0.66273100       0.68309200      -0.51252300       0.24170397       0.38758397      -0.65404705
Fe       2.04972000       2.93776000       1.03536000      -1.23701100      -0.98796000       1.66434700      -0.61997524      -0.81953004       1.01855024
Fe       2.16302000       5.60665000       3.99134000      -0.76618900       1.59088200       1.80303200      -1.07322735       0.78630465       0.54880450
Fe       0.95543000       1.84266000       4.95473000       0.27866900      -0.07002100       0.06014100       0.37889763      -0.26364326       0.88172413
Fe       2.02568000       0.02468000       0.99960000      -1.43701000       0.55575000      -0.39970700      -0.72102371       0.56182107      -0.06580013
15
Lattice="5.664536 0.0 0.0 0.0 5.664536 0.0 0.0 0.0 5.664536" Properties=species:S:1:pos:R:3:REF_forces:R:3:MACE_forces:R:3 config_type=Fe13Si1B1 REF_energy=-108.79062395 MACE_energy=-101.49694583029293 pbc="T T T"
B        5.36400000       3.87568000       4.45905000       0.44648400       0.57032200       0.28604800       0.14743864       0.29374774       0.23673061
Si       3.93387000       4.96403000       3.15711000      -4.30606800      -2.31482200      -2.68264300      -3.25836207      -1.73661291      -1.90836887
Fe       3.00216000       0.92096000       1.44117000      -0.76996800       0.42082500      -0.07835300      -0.77713978      -0.23406845      -0.00762167
Fe       1.34518000       5.62588000       2.73234000       2.41172500       0.19969700       0.20083700       1.20254104       0.09440590      -0.40934463
Fe       0.44730000       2.09377000       4.98703000       1.17940300       0.68255400       0.66504100       1.02125998      -0.34762289       0.70217194
Fe       0.30923000       3.79563000       2.39919000      -0.97580900      -1.20085800      -1.00234600      -0.00167628      -0.41041979      -0.84211218
Fe       0.18648000       1.06356000       1.31692000      -0.60348600       1.79501500       0.12312700       0.23311369       1.33205867      -0.05795384
Fe       4.00265000       2.83038000       0.00570000       0.03088500      -0.70677300      -0.45368100       0.29133433      -0.65737361       0.50471816
Fe       5.37135000       0.30945000       4.05759000       2.43746500       1.21842000       2.05861100       1.81534156       1.32826451       1.04591582
Fe       2.32985000       3.12186000       1.52540000       0.40818200       0.55373600       0.67629300      -0.20395118       0.24522180      -0.25422701
Fe       2.77320000       0.82160000       4.63749000       0.11143500       0.28254000       0.06072400       0.33524233       0.56938393      -0.12458177
Fe       1.20304000       4.94889000       5.64649000       0.50304000      -0.54997900       0.60819900       0.48939430      -0.19968949       0.79424282
Fe       4.43330000       2.29054000       2.94368000      -1.10290800       0.42652200       0.72577900      -1.11364111       0.55805864       0.46641763
Fe       4.45738000       5.14386000       0.73674000       0.07827300      -0.88309100      -1.20270400      -0.65837307      -0.32734522      -0.13644212
Fe       2.20236000       3.55424000       4.11335000       0.15134500      -0.49410700       0.01507000       0.47747761      -0.50800883      -0.00954488
15
Lattice="5.664536 0.0 0.0 0.0 5.664536 0.0 0.0 0.0 5.664536" Properties=species:S:1:pos:R:3:REF_forces:R:3:MACE_forces:R:3 config_type=Fe13Si1B1 REF_energy=113.06017811 MACE_energy=-101.33984015303406 pbc="T T T"
B        1.39848000       0.19193000       0.61048000      -4.08297800       9.29302800       8.69098400       1.04597747       1.05977626       1.49023391
Si       2.92490000       2.16030000       2.14060000      -2.63496600       9.58037000      -0.49561900      -0.68595880      -0.79385129       0.72867899
Fe       2.86073000       2.70503000       5.26584000       4.32356800      10.20896900      -4.70309300       0.55869749      -0.97292813      -1.20370228
Fe       4.47802000       3.64784000       3.04881000      -8.75739200       8.66530300      12.20431400       0.14973661       0.74338703       2.09606030
Fe       0.21576000       2.05514000       5.23160000     -18.24380600     -12.70694800      22.88283100       1.13558323       0.45442883      -0.57083578
Fe       0.44166000       2.36030000       2.32519000       9.91181000      13.04098500      -5.34425400       0.88029912      -0.23804916       0.12212631
Fe       2.03954000       3.82953000       1.07367000      -9.51630500       5.90074000      24.04305300      -1.82635249       1.11890278      -0.00975651
Fe       1.39295000       3.86962000       3.86875000       5.08493300      -5.56046400     -11.44166200       0.51468100      -0.16381737      -0.75578035
Fe       4.42805000       1.04262000       3.76613000      10.93879500       4.90624100      -3.25114800      -0.46730120       0.54002011      -0.15357132
Fe       4.44753000       1.10914000       0.85325000      15.14670800      12.45203200      -7.47268500       0.34039913      -0.69331054       0.39150908
Fe       3.06886000       5.29358000       5.21060000      31.03933500     -34.73641400       1.35306500      -0.04060176       0.14637646      -0.37798353
Fe       4.80801000       3.61880000       0.94850000       7.81841300       1.86551900       0.92546600      -0.32576918       0.97206211      -0.31203933
Fe       0.75179000       0.26400000       3.08937000     -19.58866100       1.56533600      18.55626500      -0.10546334      -0.26695417      -0.72042677
Fe       3.22665000       5.43114000       2.39493000      -7.30714900       7.24190400      -9.20324300      -0.47270837      -0.31235206       0.07188923
Fe       0.02250000       5.10600000       5.27962000     -14.13230600     -31.71660300     -46.74427400      -0.70121890      -1.59369084      -0.79640195
15
Lattice="5.664536 0.0 0.0 0.0 5.664536 0.0 0.0 0.0 5.664536" Properties=species:S:1:pos:R:3:REF_forces:R:3:MACE_forces:R:3 config_type=Fe13Si1B1 REF_energy=-108.9830283 MACE_energy=-101.249777761775 pbc="T T T"
B        0.13992000       2.30465000       0.77632000      -2.78401400      -0.82058500       0.46110900      -1.98358912      -1.04321802       0.51037949
Si       2.50353000       2.08237000       3.22653000       0.57446500       0.76610200      -0.17485000       0.50306428       0.62517020      -0.39970541
Fe       1.09387000       3.72736000       2.17845000      -2.33299800      -0.65384800       2.12861500      -1.08131353      -0.21760710       0.46538936
Fe       3.95659000       1.68198000       5.11388000       0.36857700       0.27726400       0.90410800       0.84405439      -0.19280907       0.49182958
Fe       3.24055000       0.05102000       1.45794000       1.85872300       1.81044900       1.22583000       0.45433891       0.46397602       0.49802509
Fe       1.11690000       0.40651000       2.78471000       0.23956900      -0.40930100      -0.23173800      -0.18458580      -0.20766073       0.08870663
Fe       4.54933000       5.58716000       3.59286000      -0.31901000      -1.37235600       0.15251700       0.27711585      -1.01615208       0.13153745
Fe       2.02209000       2.17177000       0.81391000       2.28654300       0.57567400       0.95002900       0.68277752      -0.13775082       0.79675072
Fe       2.49600000       4.37528000       3.91048000       1.01885200       0.91593900      -0.12431400       0.78578189      -0.27258832       0.08272767
Fe       1.55562000       0.82810000       4.97050000      -1.41574600      -0.55119900      -1.41023600      -0.60389535      -0.28224146      -0.29338224