1
Lattice="18.0 0.0 0.0 0.0 18.0 0.0 0.0 0.0 18.0" Properties=species:S:1:pos:R:3:REF_forces:R:3:MACE_forces:R:3 config_type=IsolatedAtom REF_energy=-3.283081 MACE_energy=-3.283081 pbc="T T T"
Fe       0.00000000       0.00000000       0.00000000       0.00000000       0.00000000       0.00000000      -0.00000000      -0.00000000      -0.00000000
1
Lattice="18.0 0.0 0.0 0.0 18.0 0.0 0.0 0.0 18.0" Properties=species:S:1:pos:R:3:REF_forces:R:3:MACE_forces:R:3 config_type=IsolatedAtom REF_energy=-0.81049333 MACE_energy=-0.81049333 pbc="T T T"
Si       0.00000000       0.00000000       0.00000000       0.00000000       0.00000000       0.00000000      -0.00000000      -0.00000000      -0.00000000
1
Lattice="18.0 0.0 0.0 0.0 18.0 0.0 0.0 0.0 18.0" Properties=species:S:1:pos:R:3:REF_forces:R:3:MACE_forces:R:3 config_type=IsolatedAtom REF_energy=-0.27559471 MACE_energy=-0.27559471 pbc="T T T"
B        0.00000000       0.00000000       0.00000000       0.00000000       0.00000000       0.00000000      -0.00000000      -0.00000000      -0.00000000
10
Lattice="9.0 0.0 0.0 0.0 9.0 0.0 0.0 0.0 9.0" Properties=species:S:1:pos:R:3:REF_forces:R:3:MACE_forces:R:3 config_type=Fe5B1Si4 REF_energy=-44.58554767 MACE_energy=-20.890727488730857 pbc="T T T"
Fe       3.50176000       8.99673000       3.09396000       0.95435000      -0.45803800       0.21474200       0.56775234      -0.60793221      -0.87722337
Fe       6.43801000       1.81225000       6.74888000       1.10970900      -0.66476800      -1.17007400       0.17959660      -0.21920222      -0.33531815
Fe       2.41193000       0.16613000       4.88253000       0.30913200      -0.89996000       0.17011800      -0.47745598      -0.25943691       1.05738119
Fe       8.52164000       3.22369000       0.34244000      -0.58790500      -0.47306700      -0.37861700       0.00082977       0.00056176       0.00103285
Fe       5.66627000       2.92739000       3.87411000       4.77509600       2.80733600       2.40000400       0.47720193       1.43484061       0.50095767
B        5.18442000       1.13758000       3.40139000      -0.73957100       0.38065100       0.44676100      -0.15109408      -0.33116983      -0.12018197
Si       7.10242000       1.59600000       3.97694000       2.28029300      -3.67324000       1.18634800       1.13414506      -1.08013760       0.42295031
Si       7.70822000       8.86280000       6.25904000      -0.73207200       1.84563600      -0.48266000      -0.16951943       0.29678051      -0.04918759
Si       3.91832000       3.09724000       3.40175000      -6.85054500      -1.08983400      -1.75602400      -1.34082084      -0.04528799      -0.38570696
Si       3.63788000       6.78794000       4.49538000      -0.51848800       2.22528500      -0.63059800      -0.22063536       0.81098389      -0.21470399
10
Lattice="9.0 0.0 0.0 0.0 9.0 0.0 0.0 0.0 9.0" Properties=species:S:1:pos:R:3:REF_forces:R:3:MACE_forces:R:3 config_type=Fe5B1Si4 REF_energy=-48.18464377 MACE_energy=-21.96545525928567 pbc="T T T"
Fe       7.72908000       2.13801000       3.67226000      -0.72140700       1.38590200       0.18439100       0.12138633       0.51423279      -0.17473644
Fe       2.56544000       0.37534000       3.55582000       0.62580800       1.02854400      -0.21951900       0.68092623      -0.13140551      -0.86938927
Fe       5.84797000       2.87648000       5.04299000      -0.51992300      -1.03088200      -1.60504700      -0.29508834      -0.56871563       0.46416342
Fe       2.00259000       1.62931000       5.21757000       0.16709900       0.68697000      -1.46342200      -0.21161129       0.92284451       0.28588130
Fe       3.04146000       3.03902000       3.03634000       2.84541400      -0.11631900       1.57660000       0.95997063      -0.39878947       0.52226976
B        4.26036000       4.67435000       3.72342000       0.68065500      -0.16735200      -1.56590600       0.10919406      -0.10058580      -0.08733351
Si       6.34493000       4.18783000       3.43892000      -0.40775000      -0.06673100      -0.63978400       0.34157713       0.16922081      -0.59119923
Si       0.98363000       2.81182000       2.85911000      -2.44913300      -1.45501500       1.18349900      -1.37600448      -0.44193881       0.30133758
Si       4.97672000       0.35177000       3.88032000      -0.44220000       1.58116100       0.17191700      -0.34023997       0.16929986       0.01135685
Si       4.49316000       6.21641000       2.06194000       0.22143900      -1.84627800       2.37727300       0.00988970      -0.13416274       0.13764954
10
Lattice="11.0 0.0 0.0 0.0 11.0 0.0 0.0 0.0 11.0" Properties=species:S:1:pos:R:3:REF_forces:R:3:MACE_forces:R:3 config_type=Fe5B1Si4 REF_energy=-11.58855075 MACE_energy=-20.993940415140603 pbc="T T T"
Fe       8.76471000       0.00946000       6.88513000      -0.22819700       0.12237200      -0.55543600      -0.00000000      -0.00000000      -0.00000000
Fe       2.63377000       1.33277000       3.45207000      -0.77576300      -0.08136400      -0.00027500       0.27149930       0.36036805      -0.19178984
Fe       9.34605000       7.55219000       3.04608000      -1.57311900      -1.03473800      -0.15487700      -0.16802321      -0.03297575       0.00245604
Fe       6.36389000       7.12183000       3.09324000       1.09683100       0.04242100      -0.12816300       0.17495554       0.02524805      -0.00276676
Fe       1.35866000       0.14865000       4.85122000       1.24564900       1.43265900      -2.24078300      -0.59323987      -0.20569372       0.04688850
B        0.74424000       4.87887000       2.93866000      -1.13359500      -0.78566000      -1.94809000      -0.02754187      -0.06093071      -0.14348036
Si       0.41110000       1.07145000       2.73658000       1.34178700       0.50456200      -0.25058800       0.54254093      -0.08360948       0.19439759
Si       0.39736000       3.73439000       0.50956000      -1.07905800      -1.52336200       2.18566600      -0.26418435      -0.16884959       0.20257259
Si       9.29283000       2.08457000       0.89045000       2.55214100       0.43757800       0.40081500       0.35221457       0.19563679       0.00335979
Si       2.63700000       1.37373000       1.21644000      -1.44667700       0.88553200       2.69173100      -0.28822104      -0.02919364      -0.11163755
10
Lattice="11.0 0.0 0.0 0.0 11.0 0.0 0.0 0.0 11.0" Properties=species:S:1:pos:R:3:REF_forces:R:3:MACE_forces:R:3 config_type=Fe5B1Si4 REF_energy=-38.14997444 MACE_energy=-21.376454525089102 pbc="T T T"
Fe       0.55560000       8.19331000       7.06229000       0.60700700      -1.87987400       0.40247700       0.01438759       0.00584339      -0.00803019
Fe       0.49601000       2.54487000       7.78872000      -1.62914400       1.44061600       0.72816300      -0.66819352       0.32800278       0.18548524
Fe      10.07332000       3.88379000       9.42053000       1.49055100       0.96476400      -0.05327700       0.81423890       0.32361211       0.74453662
Fe       4.45932000       9.07691000       6.11289000       0.24660800      -0.52821700      -0.02378300       0.81446240      -0.95213790       0.03411363
Fe       9.54221000       0.53076000       0.28158000      -0.51209300       1.49842300      -0.39218500      -0.03552311       0.07718930      -0.01493357
B       10.69505000       5.70310000       8.40523000       0.71876200      -1.05034900      -0.26069900      -0.05246416      -0.23340362       0.04726159
Si       9.01619000       3.31434000       7.76349000       0.22101700      -0.39376100      -0.82483600      -0.09711112      -0.43549146      -0.93012432
Si       1.50005000       6.10934000       7.36041000      -1.47354600       0.22179200       0.82993100      -0.04999626       0.00100388       0.02348340
Si       8.29851000       3.23195000      10.75936000       1.25238600      -0.70606300      -0.69191000       0.07742478      -0.06414437      -0.04875664
Si       3.13187000      10.62875000       6.05729000      -0.92154800       0.43266900       0.28612000      -0.81722549       0.94952589      -0.03303575
10
Lattice="11.0 0.0 0.0 0.0 11.0 0.0 0.0 0.0 11.0" Properties=species:S:1:pos:R:3:REF_forces:R:3:MACE_forces:R:3 config_type=Fe5B1Si4 REF_energy=-39.54850766 MACE_energy=-21.725934666469936 pbc="T T T"
Fe       7.32260000       2.25273000       9.60151000      -0.81068000       1.95759200       1.52424100      -0.06385084       0.35541679       0.34198927
Fe       5.30456000       3.18059000       0.62935000       3.59407800       0.60301100       0.45004200       1.61232904       0.51084234       0.23292217
Fe       5.70290000       5.32015000      10.23784000      -0.55638700      -0.41691100      -0.58631200      -0.48060687      -0.49961802       0.23021211
Fe       7.71673000       4.32859000       0.10409000      -1.51783000      -0.48364700      -0.94636500      -0.37596068      -0.50858733      -0.11307140
Fe       5.73415000       7.17747000       8.80515000      -0.19559000      -2.26799700       1.43769300      -0.00455837       0.19639062      -0.15420857
B        3.53335000       2.44513000       3.14396000       1.80602500       1.42469000       1.46529900       0.09690417       0.06691849       0.08909553
Si       3.05847000       4.99331000       9.56994000       1.58460600       0.22347600       0.29443400       0.38328485      -0.06190110       0.20145798
Si       4.66874000       2.05360000       5.35076000      -1.23296500       0.33348000      -2.53096100      -0.08293932       0.02941734      -0.16182152
Si       3.35109000       3.37679000       0.23198000      -2.51854700       0.79060000      -0.76406600      -1.20719667       0.41266841       0.02583216
Si       4.02675000       4.41289000       2.41329000      -0.15270900      -2.16429400      -0.34400600       0.12259469      -0.50154753      -0.69240773
10
Lattice="11.0 0.0 0.0 0.0 11.0 0.0 0.0 0.0 11.0" Properties=species:S:1:pos:R:3:REF_forces:R:3:MACE_forces:R:3 config_type=Fe5B1Si4 REF_energy=-30.22050192 MACE_energy=-20.919598528418415 pbc="T T T"
Fe       7.51027000      10.11418000       2.18625000      -1.69790900       1.72973200      -1.19644900      -1.20346725       1.28157368      -0.20750493
Fe       6.52329000       1.24583000       0.98294000       2.87583100      -1.88416600       0.59355300       0.53571731      -0.24763732       0.39122666
Fe       8.50320000       0.98219000       3.23617000       1.14940800      -1.93965800      -1.01181700       0.30938802      -1.44337616      -0.03426312
Fe       8.81725000       8.60479000       1.96311000       1.70133000      -1.33465300       0.85149000       1.13118969      -1.17620669       0.68651938
Fe       9.16079000       2.26416000       1.64872000      -0.92180800       1.06168500      -1.01542500       0.23895535       0.83966450      -0.92879241
B        8.94441000       4.16897000      10.47399000      -1.12511400       0.54375800       0.63670800      -0.07017749       0.05719307      -0.02355942
Si      10.42398000       4.23416000       1.05026000      -1.52480000      -0.05410100      -1.01659500      -0.25007963      -0.29068926       0.01755936
Si       7.56198000       2.31002000       4.34386000      -1.29363800       1.80115300       0.97958300      -0.66168481       0.95637355       0.76330403
Si       8.52672000       8.61906000      10.86161000      -0.94443500       0.65405000      -0.31886100      -0.16519935       0.07395139      -0.75403884
Si       6.81456000       4.96874000       9.06450000       1.78113500      -0.57779900       1.49781200       0.13535817      -0.05084676       0.08954928
10
Lattice="11.0 0.0 0.0 0.0 11.0 0.0 0.0 0.0 11.0" Properties=species:S:1:pos:R:3:REF_forces:R:3:MACE_forces:R:3 config_type=Fe5B1Si4 REF_energy=-36.59236839 MACE_energy=-21.15165600758788 pbc="T T T"
Fe       3.58274000      10.79851000      10.73667000       0.11897900       0.22630100      -0.04976800      -0.00000000      -0.00000000      -0.00000000
Fe       1.22875000       2.49300000       7.21708000       2.26097500      -1.53625800       1.07649700       0.78544555      -0.43596615       0.58267322
Fe       0.83190000       3.93076000       3.48688000       1.35086000      -1.69250200       0.45489600       0.62520247      -0.92601542      -1.07005933
Fe       9.39560000       2.93064000       6.23859000      -2.27414300      -0.91782300      -0.86979000      -0.90723649      -0.31435347      -0.25128081
Fe       1.68648000       4.78764000       5.33563000      -2.42207400      -1.78775100      -0.34755700      -0.33049689      -0.11747247       0.84957038
B        0.09146000       3.23421000       6.27209000       0.33374200       3.18943500      -3.08739300       0.41718229       1.04570956      -1.09556423
Si      10.14804000       1.29848000       4.70398000      -0.27194000       2.69997500       0.88966000       0.00699820       0.29712023       0.23738221
Si       7.91960000       4.68330000       6.38399000       1.00571800      -0.89791700      -1.90531900      -0.02810708      -0.08580023      -0.35445977
Si       7.87407000       3.80560000       3.83659000       1.69436900       0.65761100       2.09344900       0.45378718       0.27255802       0.49593456
Si      10.18862000       4.97429000       4.13294000      -1.79648600       0.05892800       1.74532400      -1.02277521       0.26421994       0.60580377
10
Lattice="11.0 0.0 0.0 0.0 11.0 0.0 0.0 0.0 11.0" Properties=species:S:1:pos:R:3:REF_forces:R:3:MACE_forces:R:3 config_type=Fe5B1Si4 REF_energy=-37.97135349 MACE_energy=-20.97081156044729 pbc="T T T"
Fe       9.03194000       7.52207000       3.76953000      -0.41692800       1.06213800       1.36215600       0.17342238      -0.18100925      -0.26865002
Fe      10.13763000      10.16701000       4.97367000      -1.48414600      -0.40832500      -0.11078200       0.82899631      -0.25537720       0.09273916
Fe       4.72985000       7.86062000       7.54580000      -0.46341600      -0.84233600       0.25668000      -0.19283983      -0.43214736      -0.11724805
Fe       8.27206000       8.93115000       5.41966000       2.10203900       0.88604100      -1.49179500      -0.53238175       0.10804748       0.35021964
Fe       4.77388000       2.87329000       5.35297000      -0.27504900      -0.53922100      -0.84728100       0.08907168      -0.64744335      -0.92961419
B        4.61354000       3.86066000       6.74103000      -0.14362800      -0.14915200      -1.57005500      -0.06705096       0.57831167       0.92178980
Si       1.64433000       3.13639000       3.91354000       3.75707800      -0.87803400      -0.36408100       0.85813704      -0.23321522      -0.38620202
Si       3.74801000       5.66030000       6.94882000       0.45210300       0.36957600       0.68487900       0.15746892       0.50240412       0.11893712
Si       8.69515000       0.60160000       4.24738000      -0.18983800      -0.10747800       0.51028900      -0.46820454       0.33087323      -0.17390087
Si      10.87890000       3.62141000       4.73344000      -3.33821400       0.60679200       1.56999000      -0.84661926       0.22955588       0.39192943
10
Lattice="11.0 0.0 0.0 0.0 11.0 0.0 0.0 0.0 11.0" Properties=species:S:1:pos:R:3:REF_forces:R:3:MACE_forces:R:3 config_type=Fe5B1Si4 REF_energy=-19.85588119 MACE_energy=-20.321431942831385 pbc="T T T"
Fe       0.38446000       1.64586000       0.19247000      -0.31544900       0.99906300      -1.16531000      -0.00010081       0.00003098      -0.00023760
Fe       4.73202000       7.12132000       7.31276000       0.31929800      -0.23556100       1.39875500       0.00252712       0.00458427       0.02112287
Fe       0.36789000       2.73674000       6.71847000       0.18431700      -0.99436400      -3.07194200       0.72010158       0.25286349      -1.37399211
Fe      10.07665000       2.07009000       8.11408000      -1.05625300       0.13475800      -0.04421700      -1.07454677      -0.62145401       0.85195150
Fe       0.10300000      10.83360000       4.98934000      -0.79988200       1.03958000       0.82376600       0.07337333      -0.08855465      -0.04441080
B        9.83138000       1.34479000       5.59342000       2.73003300      -1.60069300       1.71860100       0.54800194       0.15224688       0.96696826
Si       8.95511000       2.30296000       4.33786000      -0.13907800       0.36771900       0.11506400      -0.26682926       0.30486730      -0.40027925
Si       3.99539000      10.22212000       8.61506000      -0.05248500      -0.48071600       0.18941400       0.00327126      -0.01376981      -0.00578270
Si       2.69021000       5.15166000      10.73011000       1.27722300       0.17680000       0.10453800       0.01679399       0.00187308      -0.00382739
Si       5.75937000       5.49395000      10.03068000      -2.14772600       0.59341400      -0.06866800      -0.02259237       0.00731245      -0.01151278
10
Lattice="9.0 0.0 0.0 0.0 9.0 0.0 0.0 0.0 9.0" Properties=species:S:1:pos:R:3:REF_forces:R:3:MACE_forces:R:3 config_type=Fe5B1Si4 REF_energy=-45.52219027 MACE_energy=-22.188601616222567 pbc="T T T"
Fe       5.95652000       4.23215000       1.06155000      -0.98767900      -0.50029400      -0.25142400       0.29948382       0.17771436      -0.80930824
Fe       5.13270000       1.30654000       4.87525000      -1.02972800       1.07694500      -1.04271400      -0.39602714       0.72107220      -0.41724000
Fe       0.86010000       2.84042000       4.86982000       1.78090900      -0.14036100      -0.68290200       0.05772058       0.00370060      -0.01581062
Fe       4.80846000       2.20734000       0.33653000      -0.70934400       1.79820400       0.47599400      -0.53373130       0.32982967       0.31255173
Fe       4.84818000       3.73073000       2.87016000      -1.11599800      -1.47444400      -2.61602900      -0.64924125      -0.34890800      -1.12737904
B        3.56051000       3.01373000       4.13091000      -3.27582500      -2.90917300      -1.74282900      -0.49338297      -0.94099576       0.16875273
Si       3.41138000       1.28778000       2.26512000       0.95707700       2.37405100       0.97860500       0.39123106       0.61571964      -0.24535865
Si       5.16668000       2.63723000       6.68984000       0.07413900      -1.78642600       3.36318600      -0.02676879      -0.28850488       1.12385519
Si       3.08125000       3.86721000       0.97989000       1.93930500      -1.04831500       0.87154200       0.86139520      -0.45304864       0.32551234
Si       4.99984000       3.77363000       4.95280000       2.36714300       2.60981200       0.64657100       0.48932078       0.18342081       0.68442456
10
Lattice="11.0 0.0 0.0 0.0 11.0 0.0 0.0 0.0 11.0" Properties=species:S:1:pos:R:3:REF_forces:R:3:MACE_forces:R:3 config_type=Fe5B1Si4 REF_energy=-40.7418507 MACE_energy=-21.04569693261918 pbc="T T T"
Fe       5.85212000       3.50546000       5.08734000       2.15677100      -0.79414500      -0.20894700       0.05702855      -0.37974297       0.21323962
Fe       4.00684000       5.71103000       1.22208000       0.17321900       0.19260900       1.30384500       0.02167685       0.04723962       0.20644430
Fe       8.00148000       8.34774000      10.98030000      -0.08363800      -0.04550400       0.02901100      -0.00000000      -0.00000000      -0.00000000
Fe       7.35073000       2.40140000       6.64128000       0.77906300       1.12479900      -0.71056100       0.40934481       0.19390462      -0.03390647
Fe      10.15241000       4.26124000       5.16236000      -1.21868700      -1.07976300       1.03424500      -0.85613876       0.07662862       0.81926708
B        7.50939000       3.71850000       4.30627000       0.81775400       0.01191000       1.18846500       0.69366415      -0.00453976      -0.13535754
Si       0.88259000       3.63568000       4.13155000       0.18457900       0.08807600       0.63549900       0.78277403      -0.28006520      -0.46131885
Si       4.29968000       6.34926000       4.01086000      -0.04470200      -1.65685100      -0.27530200      -0.08217362      -0.39547987       0.02195196
Si       3.89182000       4.30839000       5.36988000      -1.81091900       1.59107900      -0.75492800      -0.67245825       0.63616075      -0.12018754
Si       9.83466000       2.97427000       7.53103000      -0.95344000       0.56779200      -2.24132700      -0.35371776       0.10589419      -0.51013256
10
Lattice="9.0 0.0 0.0 0.0 9.0 0.0 0.0 0.0 9.0" Properties=species:S:1:pos:R:3:REF_forces:R:3:MACE_forces:R:3 config_type=Fe5B1Si4 REF_energy=-42.65563223 MACE_energy=-21.946380796512006 pbc="T T T"
Fe       5.47398000       6.28103000       3.23251000       0.28355300       0.05833700       0.13117200       0.44146946       0.73660064       0.35066324
Fe       3.48819000       2.94480000       4.89866000      -0.87509200      -0.04370600       2.15230300      -0.08887900       0.18888671       1.08309885
Fe       8.33854000       1.27421000       2.74786000      -0.46364400       1.92715600       1.33564000      -0.44539943       0.36570953       0.34929846
Fe       6.99962000       2.76087000       4.14267000      -0.44746500       1.63766400       1.88762100      -0.04656511       0.35456772       0.77843242
Fe       1.77962000       3.26723000       3.35280000      -0.52218800      -0.67489800       0.43259300      -0.12986923      -0.22964161       0.10863601
B        4.62666000       4.86714000       2.55939000       0.26614600      -1.03752000       0.98811100      -0.48390777      -0.93811374      -0.30263968
Si       4.18354000       2.39378000       2.99079000       0.43795500       1.50930000      -2.71878500      -0.14624796       0.16552851      -0.82859946
Si       8.55432000       3.88894000       3.61944000       3.24804800       2.01892900      -1.57919700       1.19126829       0.30745572      -0.28751680
Si       5.93563000       1.17498000       3.69373000      -1.91994400      -5.30800600      -1.48876300      -0.22786834      -1.18914953      -0.47789523
Si       0.45419000       2.68863000       5.46192000      -0.00736800      -0.08725600      -1.14069400      -0.06400091       0.23815605      -0.77347781
10
Lattice="11.0 0.0 0.0 0.0 11.0 0.0 0.0 0.0 11.0" Properties=species:S:1:pos:R:3:REF_forces:R:3:MACE_forces:R:3 config_type=Fe5B1Si4 REF_energy=-34.53347477 MACE_energy=-20.930133601526123 pbc="T T T"
Fe      10.38446000       0.44273000       4.17388000      -0.78237800      -1.86098300       1.10984900      -0.22431569      -0.16033317       0.17557818
Fe       5.58579000       5.13476000       2.28318000      -1.35183300       0.99168200      -0.54319900      -0.27480868       0.43622719       0.71712906
Fe      10.26893000       9.29847000       6.65501000       0.41344200       0.04548900      -2.04786900       0.22854324      -0.06941648      -0.40681649
Fe       8.86095000       8.11141000       4.18070000       1.29133000       1.24914000       1.04926000       0.07113830       0.04954705       0.09554676
Fe       7.69214000       0.53975000       5.12514000       1.95509500      -0.60911200      -1.00813900       0.33014691      -0.01185540      -0.11672174
B        2.74748000       4.83778000       0.91630000       1.39196400      -0.12393600      -0.20196400      -0.24493309       0.04372299       0.20949980
Si       6.81162000       1.90994000       1.53462000      -0.52184800       1.18261600      -0.41056100      -0.12099424       0.38316291      -0.16942465
Si       6.12115000       4.10888000       0.52255000       1.58173000      -1.75162600       1.46051100       0.65528471      -0.90642497      -0.49291309
Si       0.91081000       9.09353000       4.86613000      -2.08485700       0.69467200       0.51855400      -0.40551771       0.19206569       0.25239312
Si       4.16380000       4.58033000      10.67633000      -1.89264600       0.18205800       0.07355800      -0.01454376       0.04330418      -0.26427094
10
Lattice="11.0 0.0 0.0 0.0 11.0 0.0 0.0 0.0 11.0" Properties=species:S:1:pos:R:3:REF_forces:R:3:MACE_forces:R:3 config_type=Fe5B1Si4 REF_energy=-31.88716106 MACE_energy=-21.56065699722974 pbc="T T T"
Fe       1.14116000       9.49468000      10.94139000       1.03161900      -0.44995100      -0.39877100       0.04221588      -0.07628633      -0.05019186
Fe       7.21367000       6.98307000       4.70883000      -2.94301400      -1.46688800       0.65014200      -0.70621848      -0.04194692      -0.01498712
Fe       4.99485000       7.56523000       3.28858000       0.74465000      -0.23543700      -0.70888800       0.11450363      -0.30465651      -0.07325140
Fe       5.11075000       7.78078000       8.02245000      -0.73545200      -0.54142400       0.97332500      -0.14121135      -0.18261381       0.05412307
Fe       5.02580000       6.08327000       6.14288000       1.53107200       2.07986600      -0.44355300       0.34702695       0.35495985      -0.03101228
B        6.46739000       9.52531000       1.42776000      -0.83213000      -0.78314200       0.21534400       0.01057358       0.01278964      -0.00995225
Si       3.36056000       5.78054000       9.88043000      -0.35408900       0.86759200       0.70337500      -0.13565563       0.79936378       0.39826970
Si       3.68875000       6.60974000       1.41965000       0.14004300       0.02695200      -1.00259500       0.22635356       0.22312846      -0.19855493
Si       3.95884000       8.08391000      10.56775000       0.21456400       0.93303900      -0.26874100      -0.41280601      -0.60993882      -0.33008536
Si       1.56076000       7.66233000       9.57449000       1.20273800      -0.43060700       0.28036300       0.65521786      -0.17479934       0.25564242
10
Lattice="11.0 0.0 0.0 0.0 11.0 0.0 0.0 0.0 11.0" Properties=species:S:1:pos:R:3:REF_forces:R:3:MACE_forces:R:3 config_type=Fe5B1Si4 REF_energy=-2.43842541 MACE_energy=-21.120771622649183 pbc="T T T"
Fe       8.11536000       3.96737000       6.09845000       2.52379000       3.39438000      -0.10855200       1.26056858       1.32664706      -0.39317281
Fe       4.00538000       4.00868000       8.30741000       1.03860200       0.49749300      -0.86210200      -0.00080400       0.00027022       0.00078103
Fe       6.21734000       5.49238000       4.54674000      -1.90078500      -0.53233000       2.45773000      -1.06799199      -0.94515948       1.05084850
Fe       6.37295000       3.21617000       6.01003000      -4.31429000      -0.62928100      -0.35144300      -1.77292839      -0.27205903      -0.55942416
Fe       4.28107000       3.14598000       4.09228000       1.68301600       0.43320300       1.57416800       0.34683639       0.10183821       0.26572051
B        8.65122000       7.09833000       7.78974000      -0.81588400      -0.96711600      -2.45875700       0.01780908       0.05780203       0.22750732
Si       8.15838000       5.95236000       4.46257000       2.65955200       1.43037300       0.95638300       1.18638420       0.27620944       0.72354778
Si       7.04021000       6.67768000       6.73922000       0.09201500      -1.71899800      -1.45860000       0.06295163      -0.47269442      -0.91183466
Si       9.92269000       6.79012000       6.33039000      -1.33422700      -1.06385500      -1.26044000      -0.27142666      -0.16172371      -0.37022376
Si       6.58826000       7.17809000       3.12641000       0.36821200      -0.84387000       1.51161300       0.23860117       0.08886968      -0.03374976
10
Lattice="6.0 0.0 0.0 0.0 6.0 0.0 0.0 0.0 6.0" Properties=species:S:1:pos:R:3:REF_forces:R:3:MACE_forces:R:3 config_type=Fe5B1Si4 REF_energy=-53.79328822 MACE_energy=-22.756699145599892 pbc="T T T"
Fe       0.50996000       2.31585000       5.10298000      -1.26599000      -0.50951400      -1.36914100      -0.35293858      -0.37143646      -0.29723515
Fe       4.41281000       4.39623000       3.51801000       2.05066400       2.95138500      -2.14682400       0.93588060       1.23501186      -1.83186505
Fe       1.31233000       5.37312000       2.96679000      -9.66985400       0.21848200       6.64889800      -1.33854404       0.13158630       1.23860193
Fe       5.30196000       5.42046000       5.41384000       1.20364700       0.82237100      -1.12375000       0.41478934       0.33561520       0.12115413
Fe       2.97556000       4.92730000       5.11455000      -0.79718400       0.13310700       0.96147400      -0.54628856      -0.12840439       0.61981149
B        5.46078000       0.52907000       3.64926000      -0.06089300       0.25590500       0.66478200       0.08095238      -0.18868513      -0.04835915
Si       2.81628000       5.37752000       2.00180000       6.85751800      -0.72904200      -5.53711500       1.16466843      -0.20802256      -0.59358556
Si       3.67557000       2.72706000       4.43876000      -0.82806600      -3.20205400       1.23328500      -0.34773306      -0.93605174       0.25558531
Si       4.50462000       4.23004000       1.13387000       0.98654700      -1.71437000      -0.38631400      -0.23409263      -0.16066508       0.04365019
Si       3.47649000       1.50306000       2.12993000       1.52361000       1.77373100       1.05470500       0.22330613       0.29105199       0.49224186
10
Lattice="12.0 0.0 0.0 0.0 12.0 0.0 0.0 0.0 12.0" Properties=species:S:1:pos:R:3:REF_forces:R:3:MACE_forces:R:3 config_type=Fe5B1Si4 REF_energy=-45.66921287 MACE_energy=-21.419440396847072 pbc="T T T"
Fe       4.03767000       2.41086000       6.51410000       1.86803300       0.00585300       0.51063200       1.24313856       0.05153892       0.09757137
Fe       4.79727000      11.75927000       9.09533000       0.54049700       0.45513700      -1.32376800      -0.51247060      -0.22636203       0.94449340
Fe       5.80034000       0.20229000       7.24671000      -0.98588000       0.20802500       0.94137200       0.34875898       0.43144577      -1.01251824