15
Lattice="5.664536 0.0 0.0 0.0 5.664536 0.0 0.0 0.0 5.664536" Properties=species:S:1:pos:R:3:REF_forces:R:3:MACE_forces:R:3 config_type=Fe13Si1B1 REF_energy=-108.19731369 MACE_energy=-52.293755973113 pbc="T T T"
B        4.05901000       2.70568000       1.01305000      -1.63855300      -0.82904000       0.73367400      -0.99143385      -0.32592710      -0.01036590
Si       2.82856000       0.10655000       3.62968000      -1.37485700       1.04288500       1.12851000      -0.73607326       0.39623635       0.60871262
Fe       2.58297000       1.18377000       1.20948000       0.93367000       0.14656100       0.38941200       1.38046493      -0.59394544      -0.35785445
Fe       0.38153000       0.68989000       3.08804000       0.88723900       3.84366500       0.15858400       0.54600388       1.16330300       0.45126167
Fe       1.54589000       2.38203000       4.72041000      -2.07199500      -0.40415400      -0.21731400      -1.48043592      -1.25131698      -0.19013468
Fe       0.00965000       3.55673000       0.57847000       1.87002200       0.46818400      -0.57360300       0.29148385       0.17149730       0.22119515
Fe       4.86453000       2.71686000       2.75028000       1.57660800      -1.70083300       1.51404400       0.55407161      -0.71578550       1.14203409
Fe       4.62966000       0.98828000       5.06676000       0.07922500       1.31640700       1.29952100      -0.69366606       1.16749491       0.24287759
Fe       0.62475000       4.47163000       2.76945000       1.95380600      -3.21231900      -1.53544400       1.41611531      -0.66355435      -1.05334716
Fe       4.87774000       4.67993000       4.41653000      -0.64493200      -0.53503200       0.30435400      -0.60068492      -0.12304348      -0.35702863
Fe       3.59664000       2.87221000       4.83153000       0.23532500      -0.37357900      -1.60523300       0.38929083       0.16988716      -0.51794325
Fe       0.66156000       0.50203000       0.73880000      -0.79576700      -0.85035100      -0.29863700      -0.76940092      -0.88444420      -0.17938638
Fe       2.16986000       4.37529000       0.15492000      -0.00013300       0.94038800       0.69583500       0.73314309       0.83118653       0.67992249
Fe       3.84648000       4.71531000       2.05312000       0.75417200       0.77170900      -2.19861800       1.13478503       0.57116580      -1.07461924
Fe       2.60819000       2.98871000       2.55518000      -1.76382900      -0.62449100       0.20491400      -1.17366358       0.08724600       0.39467609
15
Lattice="5.664536 0.0 0.0 0.0 5.664536 0.0 0.0 0.0 5.664536" Properties=species:S:1:pos:R:3:REF_forces:R:3:MACE_forces:R:3 config_type=Fe13Si1B1 REF_energy=-108.15566798 MACE_energy=-52.89107145584496 pbc="T T T"
B        4.14873000       2.95379000       1.06658000       0.16200100      -0.29917000      -0.39394100       0.32200469      -0.42971170      -0.87649040
Si       3.70970000       1.75376000       4.70342000       2.39954500       1.99334400       0.69658000       0.68504958       1.10974406       0.11967532
Fe       0.77141000       5.48369000       0.61772000       0.15863900      -0.70463600       0.73580300       0.63209461      -0.75680293       0.32641459
Fe       2.70222000       5.62328000       2.66112000      -2.84701800       1.11988600      -2.77526600      -1.87640245       1.10607101      -0.91944642
Fe       2.40590000       1.49012000       0.76033000       2.44811900      -1.09619800       2.05304000       1.95368217      -0.52121014       0.78755682
Fe       0.05981000       0.25678000       4.08407000      -0.72088300      -0.40435400      -1.12965000      -0.19859667       0.03585460      -0.50473262
Fe       2.69016000       5.46683000       4.60121000      -0.81406600      -1.20768000       2.79556400      -0.39310949      -0.11034929       0.87191244
Fe       1.47386000       1.76151000       4.03878000       0.25632200       2.31886200      -0.70750300       0.94335250       1.39458206      -0.08519823
Fe       5.58209000       3.47185000       2.53703000       2.04828400       0.56513400      -0.37619200       1.61873574       0.37640499       0.63815922
Fe       2.39981000       3.74553000       0.37431000      -0.23425500       0.56240000       0.37900500       0.18551823      -0.23107013       0.29592787
Fe       4.35312000       1.55651000       2.64463000       0.99871600      -1.26274600      -2.03362100       0.29188314      -0.62582996      -1.07744143
Fe       4.71996000       4.32124000       4.97431000      -0.09930100      -2.16645100       0.36829600      -0.62111420      -2.23861112       0.07629509
Fe       4.35696000       5.05523000       1.41829000       0.42683500       0.31250100      -0.90165400      -0.29183039       0.69725879      -0.59640393
Fe       0.47139000       2.05266000       0.60057000      -2.75315200       0.98470800      -0.10508100      -2.01424125       1.19594228      -0.21638956
Fe       3.41003000       3.62129000       2.91823000      -1.42978400      -0.71560000       1.39462200      -1.23702621      -1.00227254       1.16016124
15
Lattice="5.664536 0.0 0.0 0.0 5.664536 0.0 0.0 0.0 5.664536" Properties=species:S:1:pos:R:3:REF_forces:R:3:MACE_forces:R:3 config_type=Fe13Si1B1 REF_energy=-107.93807169 MACE_energy=-51.14995890552099 pbc="T T T"
B        3.89991000       3.42526000       0.45422000       0.11547000      -0.03553900       1.12451100       0.70040425      -0.04225676       1.61768348
Si       3.48762000       0.16630000       4.61337000       0.32574800       0.46308000      -0.01786500      -0.35429847       0.12694524       0.21120853
Fe       2.84778000       1.82037000       0.82228000      -0.98232500      -1.42221600      -1.89337000      -0.79281533      -0.76178585      -1.93819367
Fe       1.34857000       0.81784000       2.30075000      -0.53643500       0.46265000      -1.19653800      -0.05396256       0.23660502      -1.22066748
Fe       1.57642000       1.26355000       4.33118000       0.04619000       0.17232100       0.29400800       0.89755563      -0.18298477       1.10838886
Fe       0.65713000       2.94926000       0.95396000      -1.72120200      -1.22782100       0.66296100      -1.52730730      -0.73078429       0.43197967
Fe       4.05988000       1.97076000       2.38888000       1.24013900      -1.25976700       1.55714700       0.72662648      -0.63006499       0.79863744
Fe       5.41523000       1.91313000       4.86891000      -2.57043500      -0.52568200      -0.40262900      -2.80249488      -0.09168276      -0.07835527
Fe       1.35795000       4.61467000       3.62292000      -1.17710100      -0.19986100       1.26666800      -0.59667448       0.35937924       0.77964378
Fe       4.95776000       4.27854000       4.85033000       2.20080800       0.77958800      -0.24901600       1.00474070       0.09731210       0.11685872
Fe       2.90817000       3.15860000       4.25698000      -0.87756600      -0.39846100       1.25184100       0.32132835      -0.40760283       0.78117904
Fe       4.97903000       5.64594000       1.36431000      -0.69131800      -0.04726100      -0.44322300      -0.85955577       0.25034052      -0.89789096
Fe       1.21860000       5.04312000       0.28941000      -0.01329800       1.97019200      -1.42146800       0.66576831       1.40341802      -1.24693102
Fe       4.19049000       3.99341000       2.69223000       2.99720200       1.59092800      -0.45710200       1.13206402       1.07985749      -0.41961569
Fe       2.24232000       4.14646000       1.80095000       1.64412400      -0.32215200      -0.07592500       1.53862106      -0.70669540      -0.04392542
15
Lattice="5.664536 0.0 0.0 0.0 5.664536 0.0 0.0 0.0 5.664536" Properties=species:S:1:pos:R:3:REF_forces:R:3:MACE_forces:R:3 config_type=Fe13Si1B1 REF_energy=-111.97852358 MACE_energy=-55.92949836518642 pbc="T T T"
B        0.06916000       5.66432000       5.18689000       0.12008200      -0.64043800       0.01360000       0.17223276      -0.89851205      -0.03067848
Si       0.02740000       2.72248000       2.59682000      -0.95092500       0.36379500       0.29566700      -0.77727058       0.34013908       0.20706945
Fe       0.14116000       5.54768000       2.85133000       0.08282300      -0.00674100       0.52027800      -0.61032323       0.29260041       0.23837747
Fe       5.56722000       2.97052000       5.53670000      -0.67309900       0.24460700       0.18564600       0.02804127      -0.15599869       0.33303073
Fe       2.56501000       0.00405000       5.40440000       0.68434000      -0.27592000       0.60718700       0.59308666      -0.26126254       0.70914384
Fe       2.97079000       2.77487000       5.60913000       0.61990200      -0.30745300       0.59180600      -0.40428419      -0.11945484       0.04793435
Fe       3.14055000       2.58779000       2.39876000      -0.26535600       0.46856000       0.15364600      -0.34867675       0.30955775       0.42461658
Fe       1.27023000       1.29362000       1.29220000       0.59662900      -0.36144800      -0.82067800      -0.07638115       0.13352407      -0.83291104
Fe       1.26884000       1.40412000       4.24821000      -0.00500300       0.79776500      -0.57479700       0.05279433       1.27908994      -0.59646646
Fe       1.43809000       4.26211000       1.36341000       0.07769500      -0.05884300      -0.22592600       0.08499542      -0.43618661      -0.16275218
Fe       1.52070000       4.14480000       4.13170000      -0.18321100      -0.27105400      -0.71528600      -0.43699740      -0.76110489      -0.50846549
Fe       4.46936000       1.09579000       0.98330000      -0.11971100       0.01004100       0.24750400       0.43803417       0.26285702       0.04534505
Fe       4.16783000       1.22547000       4.11325000       0.42899800      -0.08684700      -0.08842400       1.03673213       0.13227478       0.19873477
Fe       4.22673000       4.46813000       1.30140000       0.09689500      -0.37725000      -0.41990000       0.22770430      -0.46461537      -0.09403698
Fe       4.20815000       4.21553000       4.01300000      -0.51005900       0.50122500       0.22967700       0.02031225       0.34709194       0.02105840
15
Lattice="5.664536 0.0 0.0 0.0 5.664536 0.0 0.0 0.0 5.664536" Properties=species:S:1:pos:R:3:REF_forces:R:3:MACE_forces:R:3 config_type=Fe13Si1B1 REF_energy=-111.93959828 MACE_energy=-55.602130860411364 pbc="T T T"
B        0.52210000       0.05440000       5.04153000      -0.83789800      -0.96014800      -0.42271900      -0.40866555      -0.83655909      -0.81643923
Si       5.59498000       2.75302000       2.63746000      -0.41285400      -0.16722200       0.32382300      -0.15415777      -0.25597331      -0.20059415
Fe       0.17766000       0.05624000       2.77011000      -0.22089500       0.44737300       1.17937900      -0.43643230       0.11930413       0.92153129
Fe       5.59682000       2.78032000       5.61495000      -0.22239300       0.41310500      -0.03657000       0.02388108       0.28274866      -0.42837339
Fe       2.71989000       5.37982000       5.43745000       0.17724800       0.17436200       0.47840000      -0.53927113       0.95212802       0.21255448
Fe       2.70157000       2.72483000       5.65192000       0.89303700       0.73165300       0.81071700       0.75129727       0.62442711       0.33032480
Fe       2.97278000       2.68063000       2.60608000       0.64664100       0.39382500      -0.89779500       0.72515231       0.75470120      -0.83250270
Fe       1.04462000       1.15381000       0.98518000       0.85892600      -0.28038300       0.02628300       0.82159250       0.35213183       0.41877295
Fe       1.65813000       1.50296000       3.98982000      -0.38663100      -0.26210300      -0.11433700      -0.89358030      -0.18059902       0.45524844
Fe       1.30631000       4.30849000       1.24352000      -0.41412900       0.11159100       0.24697100      -0.42328580      -0.32962139       0.22417976
Fe       1.58576000       4.06734000       3.99489000      -1.17533100      -0.00634600      -0.85725300      -1.20648407      -0.23359551      -0.38592111
Fe       4.12820000       1.13618000       1.10587000       0.62554700       0.31979100       0.22031500       0.76069924       0.40039009       0.37622404
Fe       4.25787000       1.24949000       4.17529000      -0.08913900      -0.07677300       0.23295600       0.32281130       0.14736616       0.30839134
Fe       4.35495000       4.45297000       1.34581000      -0.13361000      -0.53467800      -0.51744000      -0.00330969      -1.09656726      -0.06299574
Fe       4.41108000       4.43949000       4.32316000       0.69148200      -0.30404700      -0.67272800       0.65975291      -0.70028163      -0.52040079
15
Lattice="5.664536 0.0 0.0 0.0 5.664536 0.0 0.0 0.0 5.664536" Properties=species:S:1:pos:R:3:REF_forces:R:3:MACE_forces:R:3 config_type=Fe13Si1B1 REF_energy=-111.86184603 MACE_energy=-53.97877676817 pbc="T T T"
B        1.50863000       1.78767000       4.90152000      -0.44122900      -0.13378600       0.30200900       0.07194428      -0.43708816       0.22060747
Si       4.79549000       2.24346000       2.10133000      -2.02834800      -2.06166200      -2.37230900      -0.48737699      -0.60262255      -1.33437746
Fe       3.20380000       0.75276000       3.12970000      -0.26094900      -0.46491400       0.88121400       0.20262839       0.14077899       1.46249659
Fe       2.86828000       3.52346000       0.83472000       0.63525800      -0.40693500      -0.10677300       0.26102093      -0.75355929      -0.47163370
Fe       0.30208000       0.41203000       3.59178000       0.43152100       1.99959300       0.71104900       0.22264347       1.56315842      -0.01918752
Fe       4.64149000       4.82814000       4.64319000      -2.32204000      -0.32641000       1.26424000      -2.47555295       0.32741822       0.78003211
Fe       1.38623000       5.04883000       1.95913000       0.13404600      -0.76597900       0.26900800       0.30700906      -0.98438553       0.49259602
Fe       0.01651000       0.69762000       0.56316000       0.43357300       0.50429600      -0.59615700       0.33035675       0.75497010      -0.32199851
Fe       1.71843000       1.81951000       1.96274000      -0.50569400       0.44278300      -1.08150200      -1.57618472       0.56818279      -0.63633309
Fe       2.49328000       3.31853000       3.75571000       0.60663900       0.53722000       0.22889400       0.55265972       0.16219029       0.43728445
Fe       0.35204000       3.39611000       0.17394000       0.28417100      -0.58935200       0.45847800       0.42086717      -0.75521715       1.15783888
Fe       0.11270000       3.44811000       3.40342000       2.52442400       0.78461300       1.86263000       1.37992811      -0.16113285       0.17757365
Fe       4.37430000       4.86511000       1.96411000       0.02203300      -0.44143500      -0.21812100       1.00084013      -0.68834366       0.17618165
Fe       1.91304000       5.29856000       5.45252000       0.85584700       1.12077600      -1.36953800       0.64309857       0.83235726      -1.86313270
Fe       3.73798000       1.56980000       5.38787000      -0.36925300      -0.19880800      -0.23312100      -0.85388192       0.03329311      -0.25794783
15
Lattice="5.664536 0.0 0.0 0.0 5.664536 0.0 0.0 0.0 5.664536" Properties=species:S:1:pos:R:3:REF_forces:R:3:MACE_forces:R:3 config_type=Fe13Si1B1 REF_energy=-121.96103282 MACE_energy=-54.065751312840845 pbc="T T T"
B        1.89945000       0.62627000       3.85277000      -2.50069800       2.16966800      -1.53918900      -1.32820005       1.29431943       0.26020250
Si       0.20120000       2.04269000       2.64503000       1.02931600      -0.66199100      -2.72694900       0.14308233      -0.29411233      -1.18458924
Fe       2.66066000       5.42797000       2.26357000       0.53979700      -0.03646200      -1.31830900       0.52256134      -0.63020508      -0.78600109
Fe       2.90276000       2.67008000       2.15492000      -1.83815700      -0.38139400      -2.84113500      -1.65268302       0.20470559      -1.20399370
Fe       3.76617000       1.41579000       3.61058000       1.59818700      -1.99316500       0.96094000       1.88543844      -0.64296765       0.45726062
Fe       4.35629000       3.78643000       3.20548000      -0.08184500       1.05317100       0.76552100      -0.33729283       0.41380571       0.64472476
Fe       4.47628000       4.06991000       0.64852000      -0.83953300      -0.22453300       0.86736600      -1.05168316       0.04842015       0.20942809
Fe       4.19523000       1.12987000       0.84517000       0.20926900       0.78044000      -1.95195400       0.46502416       0.01877350      -0.57308600
Fe       1.20944000       0.98558000       0.54562000       0.36331500       0.64694800       1.15320100       0.37039634       0.56272788       0.38560979
Fe       2.93679000       5.24715000       4.85612000       1.78737200      -1.05335100       3.04321700       0.30931693      -0.17295663       0.83471893
Fe       2.46429000       3.02068000       4.78866000      -0.08418600      -0.93215200       0.71303400       0.01608589      -0.90443470       0.04682025
Fe       5.64539000       2.77685000       4.69631000       0.33002600      -0.76378800       3.33994500       0.50793741      -0.58229051       1.25974562
Fe       1.14045000       3.92385000       0.99225000      -0.27335200       0.02348800       0.25089500       0.17844519       0.15273479      -0.36404675
Fe       0.17432000       5.38924000       4.59788000      -0.87103600      -0.20642700       0.99417600      -0.69033096      -0.59335593       0.65466663
Fe       5.41134000       5.44443000       2.36685000       0.63152700       1.57954900      -1.71076000       0.66190199       1.12483579      -0.64146041
15
Lattice="5.664536 0.0 0.0 0.0 5.664536 0.0 0.0 0.0 5.664536" Properties=species:S:1:pos:R:3:REF_forces:R:3:MACE_forces:R:3 config_type=Fe13Si1B1 REF_energy=-109.57699008 MACE_energy=-53.73552768115994 pbc="T T T"
B        1.60964000       1.20953000       3.30762000      -0.01479600      -0.54483200       0.36412700      -0.05409613      -0.07702527      -0.02583694
Si       1.95419000       3.78303000       0.40477000       2.58923000       0.78612200      -1.61162900       1.27521198       0.01881258      -0.34323321
Fe       3.57229000       4.89724000       1.78218000      -0.69680300       0.94883800       2.04020100      -0.74283586       0.43184160       0.87733622
Fe       3.21513000       2.00319000       1.86162000       1.30615200      -1.04311700      -1.34636300       0.79089302      -0.55164448      -0.41696789
Fe       5.12136000       1.05340000       3.05836000       0.48907600      -0.57242700       0.35981000       0.65124691      -0.90891047       0.40926881
Fe       5.33303000       3.41064000       3.19935000      -1.19050900       0.64225800       0.16946300      -0.69989535       0.51291570      -0.10158036
Fe       4.69645000       3.56410000       0.59057000       0.42357200      -2.45414500       1.39631500       0.88315636      -1.57974451       0.83279994
Fe       5.00397000       0.79608000       0.67759000       0.28054300       1.18762000       0.69531900      -0.40832613       0.33244994       0.18467328
Fe       1.02131000       2.39370000       1.67631000      -1.48205000      -1.99677700       1.89497700      -0.80810722      -0.42311779       0.62567011
Fe       4.49205000       4.87623000       4.87240000      -1.22864200       1.13873400      -2.26444700      -1.00785720       0.73635036      -1.27193827
Fe       3.40200000       1.47027000       4.46233000      -0.01871000      -0.18409200       0.67173000       0.08636318      -0.63250766       0.90593120
Fe       0.59504000       2.14210000       5.17631000       0.66645200      -0.32293300      -3.32851400       0.96123379      -0.07278444      -2.55401059
Fe       1.14446000       5.07983000       4.43636000      -0.37358200       1.06798600      -0.87155500      -0.24784019       0.62563455      -0.54189268
Fe       2.52599000       3.18146000       3.48749000      -0.80261000       1.79870400       1.25168000      -1.07702906       1.89864867       0.73618310
Fe       0.91985000       5.18762000       1.86613000       0.05267700      -0.45193900       0.57888600       0.39788188      -0.31091878       0.68359730
15
Lattice="5.664536 0.0 0.0 0.0 5.664536 0.0 0.0 0.0 5.664536" Properties=species:S:1:pos:R:3:REF_forces:R:3:MACE_forces:R:3 config_type=Fe13Si1B1 REF_energy=-111.24757227 MACE_energy=-54.5198905771136 pbc="T T T"
B        2.53656000       2.62317000       3.66583000      -0.11566700      -0.22978700       0.53017200       0.14998770       0.37359478       0.51069081
Si       0.67483000       4.27329000       2.69225000       0.92910600       0.68145900       0.71622000       0.85858791       0.09139821       0.06791060
Fe       5.14560000       5.37767000       1.05479000      -0.04263700       0.54874800      -0.34508500      -0.37621846       0.19692571       0.26193102
Fe       5.17725000       2.96978000       1.28337000      -0.94481700       0.15150400      -1.65556500      -1.01540310       0.36643777      -0.89006497
Fe       4.74580000       3.13666000       4.02461000      -0.25444200      -0.82574700      -0.11998600      -0.18495861      -0.56952254      -0.76552559
Fe       0.33821000       1.51110000       2.57588000       1.22080500      -1.49602800       0.46012600       1.49859032      -0.76783214       0.76380779
Fe       3.09808000       4.41167000       2.55098000       1.58954700      -0.62340300      -0.59486000       1.53230293      -0.85996236      -0.29499882
Fe       4.73088000       0.16933000       4.32731000       1.21238200      -0.98254900      -0.92008400       0.62203667      -1.14659777      -0.88342066
Fe       3.65998000       1.37781000       0.06620000      -0.53114300       0.39644200       0.40797800      -0.61961310       1.35407141      -0.39744078
Fe       3.63898000       1.27668000       2.55773000      -0.56432500       0.60761700      -1.09420600      -0.19582217       0.14088375      -0.85563079
Fe       3.30156000       4.03302000       5.51710000       0.66273100       0.68309200      -0.51252300       0.77954432       0.49387143      -0.60452361
Fe       2.04972000       2.93776000       1.03536000      -1.23701100      -0.98796000       1.66434700      -1.09464110      -0.77566909       1.83600235
Fe       2.16302000       5.60665000       3.99134000      -0.76618900       1.59088200       1.80303200      -0.55975842       1.16996186       0.93952583
Fe       0.95543000       1.84266000       4.95473000       0.27866900      -0.07002100       0.06014100      -0.13638064      -0.45683102       0.16029459
Fe       2.02568000       0.02468000       0.99960000      -1.43701000       0.55575000      -0.39970700      -1.25825425       0.38927002       0.15144223
15
Lattice="5.664536 0.0 0.0 0.0 5.664536 0.0 0.0 0.0 5.664536" Properties=species:S:1:pos:R:3:REF_forces:R:3:MACE_forces:R:3 config_type=Fe13Si1B1 REF_energy=-108.79062395 MACE_energy=-53.35312384587853 pbc="T T T"
B        5.36400000       3.87568000       4.45905000       0.44648400       0.57032200       0.28604800       0.06007615       0.49297663      -0.18307214
Si       3.93387000       4.96403000       3.15711000      -4.30606800      -2.31482200      -2.68264300      -1.30328634      -0.85749339      -1.17043083
Fe       3.00216000       0.92096000       1.44117000      -0.76996800       0.42082500      -0.07835300      -0.13100393       0.13493686       0.04276307
Fe       1.34518000       5.62588000       2.73234000       2.41172500       0.19969700       0.20083700       2.10627147      -0.54753080       0.56551859
Fe       0.44730000       2.09377000       4.98703000       1.17940300       0.68255400       0.66504100       1.19348490       0.45547265      -0.29539440
Fe       0.30923000       3.79563000       2.39919000      -0.97580900      -1.20085800      -1.00234600      -0.73422019       0.26697068      -0.19985100
Fe       0.18648000       1.06356000       1.31692000      -0.60348600       1.79501500       0.12312700      -0.22236978       1.25932418       0.34044629
Fe       4.00265000       2.83038000       0.00570000       0.03088500      -0.70677300      -0.45368100       0.03961406      -0.62563503      -0.20788122
Fe       5.37135000       0.30945000       4.05759000       2.43746500       1.21842000       2.05861100      -0.56754024      -0.13723917       0.73194436
Fe       2.32985000       3.12186000       1.52540000       0.40818200       0.55373600       0.67629300      -0.13498946       0.77268139       0.44296336
Fe       2.77320000       0.82160000       4.63749000       0.11143500       0.28254000       0.06072400       0.58646860       0.27522085      -0.41287602
Fe       1.20304000       4.94889000       5.64649000       0.50304000      -0.54997900       0.60819900      -0.32233643       0.02182519       1.07377447
Fe       4.43330000       2.29054000       2.94368000      -1.10290800       0.42652200       0.72577900      -1.00984227       0.29082316       1.18259576
Fe       4.45738000       5.14386000       0.73674000       0.07827300      -0.88309100      -1.20270400       0.33411813      -1.62953215      -0.98555163
Fe       2.20236000       3.55424000       4.11335000       0.15134500      -0.49410700       0.01507000       0.10555531      -0.17280106      -0.92494868
15
Lattice="5.664536 0.0 0.0 0.0 5.664536 0.0 0.0 0.0 5.664536" Properties=species:S:1:pos:R:3:REF_forces:R:3:MACE_forces:R:3 config_type=Fe13Si1B1 REF_energy=113.06017811 MACE_energy=-53.03712985333316 pbc="T T T"
B        1.39848000       0.19193000       0.61048000      -4.08297800       9.29302800       8.69098400       0.36712020       0.74690117       1.18835929
Si       2.92490000       2.16030000       2.14060000      -2.63496600       9.58037000      -0.49561900       0.08772757      -0.41150830       0.24169240
Fe       2.86073000       2.70503000       5.26584000       4.32356800      10.20896900      -4.70309300       1.19603265      -1.17741730      -0.62404095
Fe       4.47802000       3.64784000       3.04881000      -8.75739200       8.66530300      12.20431400      -0.20492953      -0.02731363       2.25269655
Fe       0.21576000       2.05514000       5.23160000     -18.24380600     -12.70694800      22.88283100       1.93722542       0.17319915      -0.46762451
Fe       0.44166000       2.36030000       2.32519000       9.91181000      13.04098500      -5.34425400       0.88855084      -0.60921828      -0.47397682
Fe       2.03954000       3.82953000       1.07367000      -9.51630500       5.90074000      24.04305300      -1.54628762       1.01343230       0.62416322
Fe       1.39295000       3.86962000       3.86875000       5.08493300      -5.56046400     -11.44166200       0.50096990      -0.28598538      -0.34966000
Fe       4.42805000       1.04262000       3.76613000      10.93879500       4.90624100      -3.25114800      -0.70997347       1.15807853       0.19285335
Fe       4.44753000       1.10914000       0.85325000      15.14670800      12.45203200      -7.47268500      -0.23574550      -0.03191300       0.45224895
Fe       3.06886000       5.29358000       5.21060000      31.03933500     -34.73641400       1.35306500       0.42893967      -0.58073378      -0.42574730
Fe       4.80801000       3.61880000       0.94850000       7.81841300       1.86551900       0.92546600      -1.58673305       0.05808842      -0.55033154
Fe       0.75179000       0.26400000       3.08937000     -19.58866100       1.56533600      18.55626500       0.81212709      -0.34364811      -0.56731402
Fe       3.22665000       5.43114000       2.39493000      -7.30714900       7.24190400      -9.20324300      -1.42436537      -0.01563139      -0.57933211
Fe       0.02250000       5.10600000       5.27962000     -14.13230600     -31.71660300     -46.74427400      -0.51065878       0.33366961      -0.91398650
15
Lattice="5.664536 0.0 0.0 0.0 5.664536 0.0 0.0 0.0 5.664536" Properties=species:S:1:pos:R:3:REF_forces:R:3:MACE_forces:R:3 config_type=Fe13Si1B1 REF_energy=-108.9830283 MACE_energy=-53.25965182337086 pbc="T T T"
B        0.13992000       2.30465000       0.77632000      -2.78401400      -0.82058500       0.46110900      -1.35931577      -0.88889442       0.62760715
Si       2.50353000       2.08237000       3.22653000       0.57446500       0.76610200      -0.17485000       0.19401423       0.40501726      -0.29668816
Fe       1.09387000       3.72736000       2.17845000      -2.33299800      -0.65384800       2.12861500      -1.47702308      -0.61481713       0.53120836
Fe       3.95659000       1.68198000       5.11388000       0.36857700       0.27726400       0.90410800       0.38813507       0.11662510       1.24637920
Fe       3.24055000       0.05102000       1.45794000       1.85872300       1.81044900       1.22583000       0.37864379       1.35798348       0.86077428
Fe       1.11690000       0.40651000       2.78471000       0.23956900      -0.40930100      -0.23173800       0.38312230       0.13005447      -0.37255300
Fe       4.54933000       5.58716000       3.59286000      -0.31901000      -1.37235600       0.15251700       0.27002323      -0.97847449      -0.10650021
Fe       2.02209000       2.17177000       0.81391000       2.28654300       0.57567400       0.95002900       0.69843605       0.05519404       0.97660829
Fe       2.49600000       4.37528000       3.91048000       1.01885200       0.91593900      -0.12431400      -0.09009367      -0.07576909       0.08428074
Fe       1.55562000       0.82810000       4.97050000      -1.41574600      -0.55119900      -1.41023600      -0.21672222       0.32756643      -0.50185064