15
Lattice="5.664536 0.0 0.0 0.0 5.664536 0.0 0.0 0.0 5.664536" Properties=species:S:1:pos:R:3:REF_forces:R:3:MACE_forces:R:3 config_type=Fe13Si1B1 REF_energy=-108.19731369 MACE_energy=-160.16851761889023 pbc="T T T"
B        4.05901000       2.70568000       1.01305000      -1.63855300      -0.82904000       0.73367400      -0.16613110      -0.06898435      -0.02158719
Si       2.82856000       0.10655000       3.62968000      -1.37485700       1.04288500       1.12851000      -0.09963023       0.01443911       0.08584686
Fe       2.58297000       1.18377000       1.20948000       0.93367000       0.14656100       0.38941200       0.18981977      -0.17919242      -0.12097735
Fe       0.38153000       0.68989000       3.08804000       0.88723900       3.84366500       0.15858400       0.15229382       0.13904327       0.08225897
Fe       1.54589000       2.38203000       4.72041000      -2.07199500      -0.40415400      -0.21731400      -0.26796751      -0.27570019      -0.02157518
Fe       0.00965000       3.55673000       0.57847000       1.87002200       0.46818400      -0.57360300       0.01571478       0.05916365       0.04278864
Fe       4.86453000       2.71686000       2.75028000       1.57660800      -1.70083300       1.51404400       0.12491624      -0.15078049       0.22878156
Fe       4.62966000       0.98828000       5.06676000       0.07922500       1.31640700       1.29952100      -0.16971913       0.16021394       0.03081648
Fe       0.62475000       4.47163000       2.76945000       1.95380600      -3.21231900      -1.53544400       0.25374184       0.00200527      -0.15440164
Fe       4.87774000       4.67993000       4.41653000      -0.64493200      -0.53503200       0.30435400      -0.13235426       0.04557910      -0.09754205
Fe       3.59664000       2.87221000       4.83153000       0.23532500      -0.37357900      -1.60523300       0.07634944      -0.01124669      -0.05385258
Fe       0.66156000       0.50203000       0.73880000      -0.79576700      -0.85035100      -0.29863700      -0.06283623      -0.16883692      -0.04566820
Fe       2.16986000       4.37529000       0.15492000      -0.00013300       0.94038800       0.69583500       0.19001673       0.18933151       0.15650356
Fe       3.84648000       4.71531000       2.05312000       0.75417200       0.77170900      -2.19861800       0.15831075       0.20922548      -0.15837512
Fe       2.60819000       2.98871000       2.55518000      -1.76382900      -0.62449100       0.20491400      -0.26252491       0.03573974       0.04698325
15
Lattice="5.664536 0.0 0.0 0.0 5.664536 0.0 0.0 0.0 5.664536" Properties=species:S:1:pos:R:3:REF_forces:R:3:MACE_forces:R:3 config_type=Fe13Si1B1 REF_energy=-108.15566798 MACE_energy=-160.22391488903114 pbc="T T T"
B        4.14873000       2.95379000       1.06658000       0.16200100      -0.29917000      -0.39394100       0.04215443      -0.06952589      -0.11547860
Si       3.70970000       1.75376000       4.70342000       2.39954500       1.99334400       0.69658000       0.04871889       0.13239942      -0.04237890
Fe       0.77141000       5.48369000       0.61772000       0.15863900      -0.70463600       0.73580300       0.14476087      -0.17130251       0.12071312
Fe       2.70222000       5.62328000       2.66112000      -2.84701800       1.11988600      -2.77526600      -0.40142252       0.14470031      -0.13244520
Fe       2.40590000       1.49012000       0.76033000       2.44811900      -1.09619800       2.05304000       0.30277597      -0.09460696       0.10170815
Fe       0.05981000       0.25678000       4.08407000      -0.72088300      -0.40435400      -1.12965000       0.02692142       0.01174698      -0.08208371
Fe       2.69016000       5.46683000       4.60121000      -0.81406600      -1.20768000       2.79556400      -0.11938576      -0.00587850       0.07760063
Fe       1.47386000       1.76151000       4.03878000       0.25632200       2.31886200      -0.70750300       0.13393659       0.27849531      -0.06368529
Fe       5.58209000       3.47185000       2.53703000       2.04828400       0.56513400      -0.37619200       0.38806085       0.08776075       0.19108400
Fe       2.39981000       3.74553000       0.37431000      -0.23425500       0.56240000       0.37900500       0.04103014      -0.03085311       0.08151755
Fe       4.35312000       1.55651000       2.64463000       0.99871600      -1.26274600      -2.03362100       0.05253886      -0.11705047      -0.20510584
Fe       4.71996000       4.32124000       4.97431000      -0.09930100      -2.16645100       0.36829600      -0.03502470      -0.39683682      -0.08312546
Fe       4.35696000       5.05523000       1.41829000       0.42683500       0.31250100      -0.90165400      -0.08880058       0.17470633      -0.09855667
Fe       0.47139000       2.05266000       0.60057000      -2.75315200       0.98470800      -0.10508100      -0.24213430       0.20359063      -0.00427827
Fe       3.41003000       3.62129000       2.91823000      -1.42978400      -0.71560000       1.39462200      -0.29413017      -0.14734548       0.25451448
15
Lattice="5.664536 0.0 0.0 0.0 5.664536 0.0 0.0 0.0 5.664536" Properties=species:S:1:pos:R:3:REF_forces:R:3:MACE_forces:R:3 config_type=Fe13Si1B1 REF_energy=-107.93807169 MACE_energy=-159.96116746857112 pbc="T T T"
B        3.89991000       3.42526000       0.45422000       0.11547000      -0.03553900       1.12451100       0.18845272      -0.01907989       0.26413048
Si       3.48762000       0.16630000       4.61337000       0.32574800       0.46308000      -0.01786500      -0.04158339      -0.01079460       0.05873774
Fe       2.84778000       1.82037000       0.82228000      -0.98232500      -1.42221600      -1.89337000      -0.06815852      -0.13227576      -0.30761684
Fe       1.34857000       0.81784000       2.30075000      -0.53643500       0.46265000      -1.19653800      -0.00924167       0.08906352      -0.21877626
Fe       1.57642000       1.26355000       4.33118000       0.04619000       0.17232100       0.29400800       0.09307548      -0.03942682       0.20571791
Fe       0.65713000       2.94926000       0.95396000      -1.72120200      -1.22782100       0.66296100      -0.31587780      -0.17132136       0.11470579
Fe       4.05988000       1.97076000       2.38888000       1.24013900      -1.25976700       1.55714700       0.10650950      -0.04170382       0.07557098
Fe       5.41523000       1.91313000       4.86891000      -2.57043500      -0.52568200      -0.40262900      -0.43353968      -0.06747837      -0.05333258
Fe       1.35795000       4.61467000       3.62292000      -1.17710100      -0.19986100       1.26666800      -0.09269875       0.02100263       0.12297043
Fe       4.95776000       4.27854000       4.85033000       2.20080800       0.77958800      -0.24901600       0.13879091       0.07838640       0.05635152
Fe       2.90817000       3.15860000       4.25698000      -0.87756600      -0.39846100       1.25184100       0.03631001      -0.06777007       0.10270890
Fe       4.97903000       5.64594000       1.36431000      -0.69131800      -0.04726100      -0.44322300      -0.19998323       0.04750835      -0.17317293
Fe       1.21860000       5.04312000       0.28941000      -0.01329800       1.97019200      -1.42146800       0.17353363       0.25837033      -0.16751849
Fe       4.19049000       3.99341000       2.69223000       2.99720200       1.59092800      -0.45710200       0.21110125       0.15338049      -0.10192717
Fe       2.24232000       4.14646000       1.80095000       1.64412400      -0.32215200      -0.07592500       0.21330952      -0.09786104       0.02145053
15
Lattice="5.664536 0.0 0.0 0.0 5.664536 0.0 0.0 0.0 5.664536" Properties=species:S:1:pos:R:3:REF_forces:R:3:MACE_forces:R:3 config_type=Fe13Si1B1 REF_energy=-111.97852358 MACE_energy=-160.78007240217084 pbc="T T T"
B        0.06916000       5.66432000       5.18689000       0.12008200      -0.64043800       0.01360000       0.07410275      -0.21235826       0.06378464
Si       0.02740000       2.72248000       2.59682000      -0.95092500       0.36379500       0.29566700      -0.15218797       0.05015298      -0.00198137
Fe       0.14116000       5.54768000       2.85133000       0.08282300      -0.00674100       0.52027800      -0.13535136       0.06725850      -0.00134817
Fe       5.56722000       2.97052000       5.53670000      -0.67309900       0.24460700       0.18564600      -0.03021999      -0.02210428       0.09965288
Fe       2.56501000       0.00405000       5.40440000       0.68434000      -0.27592000       0.60718700       0.14083791      -0.05174321       0.13762562
Fe       2.97079000       2.77487000       5.60913000       0.61990200      -0.30745300       0.59180600      -0.07082640      -0.04340328       0.03510756
Fe       3.14055000       2.58779000       2.39876000      -0.26535600       0.46856000       0.15364600      -0.05796419       0.05873935       0.06628748
Fe       1.27023000       1.29362000       1.29220000       0.59662900      -0.36144800      -0.82067800      -0.02095756       0.05860706      -0.15313593
Fe       1.26884000       1.40412000       4.24821000      -0.00500300       0.79776500      -0.57479700       0.02156311       0.29182249      -0.10099622
Fe       1.43809000       4.26211000       1.36341000       0.07769500      -0.05884300      -0.22592600       0.03503361      -0.08053044      -0.01200311
Fe       1.52070000       4.14480000       4.13170000      -0.18321100      -0.27105400      -0.71528600      -0.00388746      -0.20661561      -0.14760477
Fe       4.46936000       1.09579000       0.98330000      -0.11971100       0.01004100       0.24750400       0.07746292       0.05126944       0.02483082
Fe       4.16783000       1.22547000       4.11325000       0.42899800      -0.08684700      -0.08842400       0.18691096       0.02293336       0.03465831
Fe       4.22673000       4.46813000       1.30140000       0.09689500      -0.37725000      -0.41990000       0.01713255      -0.06855179      -0.00061040
Fe       4.20815000       4.21553000       4.01300000      -0.51005900       0.50122500       0.22967700      -0.08164888       0.08452368      -0.04426736
15
Lattice="5.664536 0.0 0.0 0.0 5.664536 0.0 0.0 0.0 5.664536" Properties=species:S:1:pos:R:3:REF_forces:R:3:MACE_forces:R:3 config_type=Fe13Si1B1 REF_energy=-111.93959828 MACE_energy=-160.68641710739274 pbc="T T T"
B        0.52210000       0.05440000       5.04153000      -0.83789800      -0.96014800      -0.42271900      -0.09820756      -0.08997834      -0.07809133
Si       5.59498000       2.75302000       2.63746000      -0.41285400      -0.16722200       0.32382300      -0.05740236      -0.06865985      -0.07261189
Fe       0.17766000       0.05624000       2.77011000      -0.22089500       0.44737300       1.17937900      -0.09564784       0.06136811       0.13841480
Fe       5.59682000       2.78032000       5.61495000      -0.22239300       0.41310500      -0.03657000       0.03396456       0.02586352      -0.07057713
Fe       2.71989000       5.37982000       5.43745000       0.17724800       0.17436200       0.47840000      -0.06287628       0.15751277       0.02911219
Fe       2.70157000       2.72483000       5.65192000       0.89303700       0.73165300       0.81071700       0.17009424       0.17174211       0.10788055
Fe       2.97278000       2.68063000       2.60608000       0.64664100       0.39382500      -0.89779500       0.18562025       0.16803771      -0.21651121
Fe       1.04462000       1.15381000       0.98518000       0.85892600      -0.28038300       0.02628300       0.13394852       0.04320474       0.04081779
Fe       1.65813000       1.50296000       3.98982000      -0.38663100      -0.26210300      -0.11433700      -0.13071250       0.00201025       0.09991833
Fe       1.30631000       4.30849000       1.24352000      -0.41412900       0.11159100       0.24697100      -0.09239918      -0.07219721       0.11125807
Fe       1.58576000       4.06734000       3.99489000      -1.17533100      -0.00634600      -0.85725300      -0.23584801      -0.09695818      -0.12815478
Fe       4.12820000       1.13618000       1.10587000       0.62554700       0.31979100       0.22031500       0.18853900       0.05868772       0.06306022
Fe       4.25787000       1.24949000       4.17529000      -0.08913900      -0.07677300       0.23295600      -0.01180784       0.04067159       0.08539710
Fe       4.35495000       4.45297000       1.34581000      -0.13361000      -0.53467800      -0.51744000       0.00497962      -0.25066168      -0.01957880
Fe       4.41108000       4.43949000       4.32316000       0.69148200      -0.30404700      -0.67272800       0.06775538      -0.15064326      -0.09033391
15
Lattice="5.664536 0.0 0.0 0.0 5.664536 0.0 0.0 0.0 5.664536" Properties=species:S:1:pos:R:3:REF_forces:R:3:MACE_forces:R:3 config_type=Fe13Si1B1 REF_energy=-111.86184603 MACE_energy=-160.4623129982241 pbc="T T T"
B        1.50863000       1.78767000       4.90152000      -0.44122900      -0.13378600       0.30200900       0.03485270      -0.02655762       0.02774141
Si       4.79549000       2.24346000       2.10133000      -2.02834800      -2.06166200      -2.37230900       0.01330180      -0.06253485      -0.21070782
Fe       3.20380000       0.75276000       3.12970000      -0.26094900      -0.46491400       0.88121400       0.04509147       0.06417767       0.24603098
Fe       2.86828000       3.52346000       0.83472000       0.63525800      -0.40693500      -0.10677300       0.03314783      -0.15466238      -0.11866704
Fe       0.30208000       0.41203000       3.59178000       0.43152100       1.99959300       0.71104900       0.00086494       0.21502614       0.02526138
Fe       4.64149000       4.82814000       4.64319000      -2.32204000      -0.32641000       1.26424000      -0.49899927       0.08854524       0.06466746
Fe       1.38623000       5.04883000       1.95913000       0.13404600      -0.76597900       0.26900800       0.02924072      -0.20085312       0.13862214
Fe       0.01651000       0.69762000       0.56316000       0.43357300       0.50429600      -0.59615700       0.00477402       0.19511586      -0.04594715
Fe       1.71843000       1.81951000       1.96274000      -0.50569400       0.44278300      -1.08150200      -0.35531962       0.09449327      -0.10192066
Fe       2.49328000       3.31853000       3.75571000       0.60663900       0.53722000       0.22889400       0.11592030       0.06735567       0.12235324
Fe       0.35204000       3.39611000       0.17394000       0.28417100      -0.58935200       0.45847800       0.09345241      -0.15885297       0.27755379
Fe       0.11270000       3.44811000       3.40342000       2.52442400       0.78461300       1.86263000       0.21348675      -0.08522917      -0.02158580
Fe       4.37430000       4.86511000       1.96411000       0.02203300      -0.44143500      -0.21812100       0.23395823      -0.15210803       0.05513567
Fe       1.91304000       5.29856000       5.45252000       0.85584700       1.12077600      -1.36953800       0.18484885       0.12841286      -0.39587421
Fe       3.73798000       1.56980000       5.38787000      -0.36925300      -0.19880800      -0.23312100      -0.14862115      -0.01232858      -0.06266338
15
Lattice="5.664536 0.0 0.0 0.0 5.664536 0.0 0.0 0.0 5.664536" Properties=species:S:1:pos:R:3:REF_forces:R:3:MACE_forces:R:3 config_type=Fe13Si1B1 REF_energy=-121.96103282 MACE_energy=-160.47149559376768 pbc="T T T"
B        1.89945000       0.62627000       3.85277000      -2.50069800       2.16966800      -1.53918900      -0.21065098       0.23524205       0.06963391
Si       0.20120000       2.04269000       2.64503000       1.02931600      -0.66199100      -2.72694900      -0.03196906      -0.01673903      -0.20446295
Fe       2.66066000       5.42797000       2.26357000       0.53979700      -0.03646200      -1.31830900       0.11243862      -0.17345282      -0.14021425
Fe       2.90276000       2.67008000       2.15492000      -1.83815700      -0.38139400      -2.84113500      -0.30168322       0.07361016      -0.14991394
Fe       3.76617000       1.41579000       3.61058000       1.59818700      -1.99316500       0.96094000       0.41571460      -0.08143196       0.03803690
Fe       4.35629000       3.78643000       3.20548000      -0.08184500       1.05317100       0.76552100      -0.08253758       0.07706878       0.08166555
Fe       4.47628000       4.06991000       0.64852000      -0.83953300      -0.22453300       0.86736600      -0.25494730       0.03501647       0.05611807
Fe       4.19523000       1.12987000       0.84517000       0.20926900       0.78044000      -1.95195400       0.12404588      -0.01832247      -0.12987918
Fe       1.20944000       0.98558000       0.54562000       0.36331500       0.64694800       1.15320100       0.04728338       0.10548056       0.07356645
Fe       2.93679000       5.24715000       4.85612000       1.78737200      -1.05335100       3.04321700       0.04389171      -0.03183784       0.13014433
Fe       2.46429000       3.02068000       4.78866000      -0.08418600      -0.93215200       0.71303400      -0.00427318      -0.18802687      -0.01894310
Fe       5.64539000       2.77685000       4.69631000       0.33002600      -0.76378800       3.33994500       0.12331089      -0.11979333       0.19350148
Fe       1.14045000       3.92385000       0.99225000      -0.27335200       0.02348800       0.25089500       0.03792483       0.05866138      -0.08235552
Fe       0.17432000       5.38924000       4.59788000      -0.87103600      -0.20642700       0.99417600      -0.15292948      -0.20165534       0.16391990
Fe       5.41134000       5.44443000       2.36685000       0.63152700       1.57954900      -1.71076000       0.13438087       0.24618024      -0.08081764
15
Lattice="5.664536 0.0 0.0 0.0 5.664536 0.0 0.0 0.0 5.664536" Properties=species:S:1:pos:R:3:REF_forces:R:3:MACE_forces:R:3 config_type=Fe13Si1B1 REF_energy=-109.57699008 MACE_energy=-160.41166217118254 pbc="T T T"
B        1.60964000       1.20953000       3.30762000      -0.01479600      -0.54483200       0.36412700      -0.00843924      -0.03047693       0.01214333
Si       1.95419000       3.78303000       0.40477000       2.58923000       0.78612200      -1.61162900       0.14408022       0.02771599      -0.03538920
Fe       3.57229000       4.89724000       1.78218000      -0.69680300       0.94883800       2.04020100      -0.16730800       0.04736631       0.14667143
Fe       3.21513000       2.00319000       1.86162000       1.30615200      -1.04311700      -1.34636300       0.16012850      -0.09047575      -0.07045653
Fe       5.12136000       1.05340000       3.05836000       0.48907600      -0.57242700       0.35981000       0.10020514      -0.20675511       0.10630641
Fe       5.33303000       3.41064000       3.19935000      -1.19050900       0.64225800       0.16946300      -0.13615255       0.12387663      -0.06999838
Fe       4.69645000       3.56410000       0.59057000       0.42357200      -2.45414500       1.39631500       0.09116812      -0.20847448       0.17518264
Fe       5.00397000       0.79608000       0.67759000       0.28054300       1.18762000       0.69531900      -0.07746215       0.12250920       0.01189611
Fe       1.02131000       2.39370000       1.67631000      -1.48205000      -1.99677700       1.89497700      -0.13208795      -0.03520856       0.05444940
Fe       4.49205000       4.87623000       4.87240000      -1.22864200       1.13873400      -2.26444700      -0.19464822       0.10473777      -0.17093199
Fe       3.40200000       1.47027000       4.46233000      -0.01871000      -0.18409200       0.67173000       0.01571216      -0.13315819       0.15431270
Fe       0.59504000       2.14210000       5.17631000       0.66645200      -0.32293300      -3.32851400       0.20845766      -0.03024363      -0.45499719
Fe       1.14446000       5.07983000       4.43636000      -0.37358200       1.06798600      -0.87155500       0.00958631       0.09253634      -0.10581258
Fe       2.52599000       3.18146000       3.48749000      -0.80261000       1.79870400       1.25168000      -0.13518594       0.34866466       0.15739075
Fe       0.91985000       5.18762000       1.86613000       0.05267700      -0.45193900       0.57888600       0.12194595      -0.13261424       0.08923312
15
Lattice="5.664536 0.0 0.0 0.0 5.664536 0.0 0.0 0.0 5.664536" Properties=species:S:1:pos:R:3:REF_forces:R:3:MACE_forces:R:3 config_type=Fe13Si1B1 REF_energy=-111.24757227 MACE_energy=-160.57188352039032 pbc="T T T"
B        2.53656000       2.62317000       3.66583000      -0.11566700      -0.22978700       0.53017200       0.00357451      -0.02196080       0.06807566
Si       0.67483000       4.27329000       2.69225000       0.92910600       0.68145900       0.71622000       0.14345037       0.02398047      -0.03640988
Fe       5.14560000       5.37767000       1.05479000      -0.04263700       0.54874800      -0.34508500      -0.03939133      -0.01237261       0.08571527
Fe       5.17725000       2.96978000       1.28337000      -0.94481700       0.15150400      -1.65556500      -0.14113940       0.06306680      -0.11965549
Fe       4.74580000       3.13666000       4.02461000      -0.25444200      -0.82574700      -0.11998600       0.01103213      -0.05454621      -0.16881127
Fe       0.33821000       1.51110000       2.57588000       1.22080500      -1.49602800       0.46012600       0.32004575      -0.11371856       0.11012069
Fe       3.09808000       4.41167000       2.55098000       1.58954700      -0.62340300      -0.59486000       0.29167692      -0.06561275      -0.04809859
Fe       4.73088000       0.16933000       4.32731000       1.21238200      -0.98254900      -0.92008400       0.09522585      -0.24824524      -0.11463035
Fe       3.65998000       1.37781000       0.06620000      -0.53114300       0.39644200       0.40797800      -0.11334804       0.29303582      -0.11678952
Fe       3.63898000       1.27668000       2.55773000      -0.56432500       0.60761700      -1.09420600      -0.04357947       0.01836270      -0.22564287
Fe       3.30156000       4.03302000       5.51710000       0.66273100       0.68309200      -0.51252300       0.14459021       0.03547303      -0.02633355
Fe       2.04972000       2.93776000       1.03536000      -1.23701100      -0.98796000       1.66434700      -0.21416842      -0.09753474       0.36217471
Fe       2.16302000       5.60665000       3.99134000      -0.76618900       1.59088200       1.80303200      -0.08456021       0.19956221       0.17246341
Fe       0.95543000       1.84266000       4.95473000       0.27866900      -0.07002100       0.06014100      -0.04748623      -0.10888176       0.05583148
Fe       2.02568000       0.02468000       0.99960000      -1.43701000       0.55575000      -0.39970700      -0.32592264       0.08939164       0.00199031
15
Lattice="5.664536 0.0 0.0 0.0 5.664536 0.0 0.0 0.0 5.664536" Properties=species:S:1:pos:R:3:REF_forces:R:3:MACE_forces:R:3 config_type=Fe13Si1B1 REF_energy=-108.79062395 MACE_energy=-160.31749502235644 pbc="T T T"
B        5.36400000       3.87568000       4.45905000       0.44648400       0.57032200       0.28604800       0.03272899       0.05428236       0.01055534
Si       3.93387000       4.96403000       3.15711000      -4.30606800      -2.31482200      -2.68264300      -0.24638927      -0.11979526      -0.18001029
Fe       3.00216000       0.92096000       1.44117000      -0.76996800       0.42082500      -0.07835300      -0.00048133      -0.00032787      -0.02344912
Fe       1.34518000       5.62588000       2.73234000       2.41172500       0.19969700       0.20083700       0.38739219      -0.10319094       0.09436990
Fe       0.44730000       2.09377000       4.98703000       1.17940300       0.68255400       0.66504100       0.22358684       0.05059469      -0.07907112
Fe       0.30923000       3.79563000       2.39919000      -0.97580900      -1.20085800      -1.00234600      -0.13699757       0.08205357      -0.06735457
Fe       0.18648000       1.06356000       1.31692000      -0.60348600       1.79501500       0.12312700      -0.01562183       0.26187119       0.08552155
Fe       4.00265000       2.83038000       0.00570000       0.03088500      -0.70677300      -0.45368100      -0.03339805      -0.13748289      -0.04029914
Fe       5.37135000       0.30945000       4.05759000       2.43746500       1.21842000       2.05861100      -0.19002214      -0.04611370       0.06360918
Fe       2.32985000       3.12186000       1.52540000       0.40818200       0.55373600       0.67629300      -0.03515700       0.13991153       0.11023779
Fe       2.77320000       0.82160000       4.63749000       0.11143500       0.28254000       0.06072400       0.16172311       0.09261335      -0.07392169
Fe       1.20304000       4.94889000       5.64649000       0.50304000      -0.54997900       0.60819900      -0.01204420      -0.01992773       0.28541009
Fe       4.43330000       2.29054000       2.94368000      -1.10290800       0.42652200       0.72577900      -0.21783775       0.06921193       0.21533544
Fe       4.45738000       5.14386000       0.73674000       0.07827300      -0.88309100      -1.20270400       0.04879006      -0.27913631      -0.15474777
Fe       2.20236000       3.55424000       4.11335000       0.15134500      -0.49410700       0.01507000       0.03372794      -0.04456393      -0.24618560
15
Lattice="5.664536 0.0 0.0 0.0 5.664536 0.0 0.0 0.0 5.664536" Properties=species:S:1:pos:R:3:REF_forces:R:3:MACE_forces:R:3 config_type=Fe13Si1B1 REF_energy=113.06017811 MACE_energy=-160.25386934830013 pbc="T T T"
B        1.39848000       0.19193000       0.61048000      -4.08297800       9.29302800       8.69098400       0.03265217       0.19674934       0.29557157
Si       2.92490000       2.16030000       2.14060000      -2.63496600       9.58037000      -0.49561900       0.03435740      -0.08477899      -0.03055483
Fe       2.86073000       2.70503000       5.26584000       4.32356800      10.20896900      -4.70309300       0.18894759      -0.17296836      -0.03569284
Fe       4.47802000       3.64784000       3.04881000      -8.75739200       8.66530300      12.20431400      -0.00596682      -0.06672889       0.40084331
Fe       0.21576000       2.05514000       5.23160000     -18.24380600     -12.70694800      22.88283100       0.41976928      -0.01699065      -0.06652311
Fe       0.44166000       2.36030000       2.32519000       9.91181000      13.04098500      -5.34425400       0.21219637      -0.14251215      -0.11362275
Fe       2.03954000       3.82953000       1.07367000      -9.51630500       5.90074000      24.04305300      -0.24334496       0.03236156       0.09053969
Fe       1.39295000       3.86962000       3.86875000       5.08493300      -5.56046400     -11.44166200       0.06228044      -0.05618474      -0.08150159
Fe       4.42805000       1.04262000       3.76613000      10.93879500       4.90624100      -3.25114800      -0.16423686       0.28285978       0.03778077
Fe       4.44753000       1.10914000       0.85325000      15.14670800      12.45203200      -7.47268500      -0.02562315       0.07818339       0.06958580
Fe       3.06886000       5.29358000       5.21060000      31.03933500     -34.73641400       1.35306500       0.12394423      -0.12608487      -0.09918740
Fe       4.80801000       3.61880000       0.94850000       7.81841300       1.86551900       0.92546600      -0.34504326       0.03669517      -0.08614383
Fe       0.75179000       0.26400000       3.08937000     -19.58866100       1.56533600      18.55626500       0.16701704      -0.06743798      -0.14915208
Fe       3.22665000       5.43114000       2.39493000      -7.30714900       7.24190400      -9.20324300      -0.31335915       0.03730032      -0.09631466
Fe       0.02250000       5.10600000       5.27962000     -14.13230600     -31.71660300     -46.74427400      -0.14359031       0.06953705      -0.13562804
15
Lattice="5.664536 0.0 0.0 0.0 5.664536 0.0 0.0 0.0 5.664536" Properties=species:S:1:pos:R:3:REF_forces:R:3:MACE_forces:R:3 config_type=Fe13Si1B1 REF_energy=-108.9830283 MACE_energy=-160.34464493918438 pbc="T T T"
B        0.13992000       2.30465000       0.77632000      -2.78401400      -0.82058500       0.46110900      -0.20711014      -0.17693502       0.09370953
Si       2.50353000       2.08237000       3.22653000       0.57446500       0.76610200      -0.17485000      -0.01421081       0.09507056      -0.03429575
Fe       1.09387000       3.72736000       2.17845000      -2.33299800      -0.65384800       2.12861500      -0.29097706      -0.10686056       0.09964130
Fe       3.95659000       1.68198000       5.11388000       0.36857700       0.27726400       0.90410800       0.04415379      -0.00187713       0.24502358
Fe       3.24055000       0.05102000       1.45794000       1.85872300       1.81044900       1.22583000       0.01374160       0.23421439       0.08124210
Fe       1.11690000       0.40651000       2.78471000       0.23956900      -0.40930100      -0.23173800       0.09378188       0.07752544      -0.11000306
Fe       4.54933000       5.58716000       3.59286000      -0.31901000      -1.37235600       0.15251700       0.06487715      -0.24984382      -0.00726838
Fe       2.02209000       2.17177000       0.81391000       2.28654300       0.57567400       0.95002900       0.09498888      -0.00260774       0.18045243
Fe       2.49600000       4.37528000       3.91048000       1.01885200       0.91593900      -0.12431400      -0.01267139      -0.03904960       0.04675207
Fe       1.55562000       0.82810000       4.97050000      -1.41574600      -0.55119900      -1.41023600       0.03524073       0.11368290      -0.06649329