15
Lattice="5.664536 0.0 0.0 0.0 5.664536 0.0 0.0 0.0 5.664536" Properties=species:S:1:pos:R:3:REF_forces:R:3:MACE_forces:R:3 config_type=Fe13Si1B1 REF_energy=-108.19731369 MACE_energy=-48.68587912749987 pbc="T T T"
B        4.05901000       2.70568000       1.01305000      -1.63855300      -0.82904000       0.73367400      -0.44600909      -0.20282457      -0.08056342
Si       2.82856000       0.10655000       3.62968000      -1.37485700       1.04288500       1.12851000      -0.52674723       0.27785950       0.50502971
Fe       2.58297000       1.18377000       1.20948000       0.93367000       0.14656100       0.38941200       0.95024810      -0.54997312      -0.27925011
Fe       0.38153000       0.68989000       3.08804000       0.88723900       3.84366500       0.15858400       0.35691638       0.88259290       0.40765137
Fe       1.54589000       2.38203000       4.72041000      -2.07199500      -0.40415400      -0.21731400      -1.08747053      -0.89948761      -0.08061391
Fe       0.00965000       3.55673000       0.57847000       1.87002200       0.46818400      -0.57360300       0.10184828       0.16186231       0.23877016
Fe       4.86453000       2.71686000       2.75028000       1.57660800      -1.70083300       1.51404400       0.35128544      -0.40176989       0.80092443
Fe       4.62966000       0.98828000       5.06676000       0.07922500       1.31640700       1.29952100      -0.51467732       0.73922204       0.07787098
Fe       0.62475000       4.47163000       2.76945000       1.95380600      -3.21231900      -1.53544400       0.99084417      -0.50991139      -0.87656223
Fe       4.87774000       4.67993000       4.41653000      -0.64493200      -0.53503200       0.30435400      -0.47308381      -0.12336241      -0.41503125
Fe       3.59664000       2.87221000       4.83153000       0.23532500      -0.37357900      -1.60523300       0.38045062       0.18910099      -0.38784158
Fe       0.66156000       0.50203000       0.73880000      -0.79576700      -0.85035100      -0.29863700      -0.49383432      -0.72867172      -0.09660450
Fe       2.16986000       4.37529000       0.15492000      -0.00013300       0.94038800       0.69583500       0.46576864       0.64686112       0.49881241
Fe       3.84648000       4.71531000       2.05312000       0.75417200       0.77170900      -2.19861800       0.88961973       0.44312235      -0.76487469
Fe       2.60819000       2.98871000       2.55518000      -1.76382900      -0.62449100       0.20491400      -0.94515905       0.07537950       0.45228264
15
Lattice="5.664536 0.0 0.0 0.0 5.664536 0.0 0.0 0.0 5.664536" Properties=species:S:1:pos:R:3:REF_forces:R:3:MACE_forces:R:3 config_type=Fe13Si1B1 REF_energy=-108.15566798 MACE_energy=-49.03128525639629 pbc="T T T"
B        4.14873000       2.95379000       1.06658000       0.16200100      -0.29917000      -0.39394100       0.19573349      -0.29294037      -0.59147767
Si       3.70970000       1.75376000       4.70342000       2.39954500       1.99334400       0.69658000       0.49357386       0.80559244      -0.02243888
Fe       0.77141000       5.48369000       0.61772000       0.15863900      -0.70463600       0.73580300       0.51994012      -0.59161632       0.13999808
Fe       2.70222000       5.62328000       2.66112000      -2.84701800       1.11988600      -2.77526600      -1.42050210       0.92114137      -0.73332571
Fe       2.40590000       1.49012000       0.76033000       2.44811900      -1.09619800       2.05304000       1.28995020      -0.54312122       0.53189947
Fe       0.05981000       0.25678000       4.08407000      -0.72088300      -0.40435400      -1.12965000      -0.13548148       0.08123604      -0.33356345
Fe       2.69016000       5.46683000       4.60121000      -0.81406600      -1.20768000       2.79556400      -0.41944757      -0.11861383       0.72904438
Fe       1.47386000       1.76151000       4.03878000       0.25632200       2.31886200      -0.70750300       0.73627288       0.96338847      -0.00152988
Fe       5.58209000       3.47185000       2.53703000       2.04828400       0.56513400      -0.37619200       1.22811255       0.23771665       0.50988895
Fe       2.39981000       3.74553000       0.37431000      -0.23425500       0.56240000       0.37900500       0.13309416      -0.11048474       0.23802774
Fe       4.35312000       1.55651000       2.64463000       0.99871600      -1.26274600      -2.03362100       0.23810196      -0.56094658      -0.84949895
Fe       4.71996000       4.32124000       4.97431000      -0.09930100      -2.16645100       0.36829600      -0.48774805      -1.53722293      -0.05297274
Fe       4.35696000       5.05523000       1.41829000       0.42683500       0.31250100      -0.90165400      -0.19814473       0.55583697      -0.40706736
Fe       0.47139000       2.05266000       0.60057000      -2.75315200       0.98470800      -0.10508100      -1.29691235       0.87038766      -0.14541044
Fe       3.41003000       3.62129000       2.91823000      -1.42978400      -0.71560000       1.39462200      -0.87654296      -0.68035360       0.98842644
15
Lattice="5.664536 0.0 0.0 0.0 5.664536 0.0 0.0 0.0 5.664536" Properties=species:S:1:pos:R:3:REF_forces:R:3:MACE_forces:R:3 config_type=Fe13Si1B1 REF_energy=-107.93807169 MACE_energy=-47.899324943162135 pbc="T T T"
B        3.89991000       3.42526000       0.45422000       0.11547000      -0.03553900       1.12451100       0.51705316       0.02234162       0.93245711
Si       3.48762000       0.16630000       4.61337000       0.32574800       0.46308000      -0.01786500      -0.28757926       0.10689785       0.16846440
Fe       2.84778000       1.82037000       0.82228000      -0.98232500      -1.42221600      -1.89337000      -0.68235281      -0.47401056      -1.45798762
Fe       1.34857000       0.81784000       2.30075000      -0.53643500       0.46265000      -1.19653800      -0.06308614       0.08384843      -1.07875223
Fe       1.57642000       1.26355000       4.33118000       0.04619000       0.17232100       0.29400800       0.65856687      -0.19887772       0.90313525
Fe       0.65713000       2.94926000       0.95396000      -1.72120200      -1.22782100       0.66296100      -0.98485149      -0.60513630       0.29690940
Fe       4.05988000       1.97076000       2.38888000       1.24013900      -1.25976700       1.55714700       0.53362670      -0.51577778       0.63388665
Fe       5.41523000       1.91313000       4.86891000      -2.57043500      -0.52568200      -0.40262900      -1.96849304      -0.05314428      -0.10617080
Fe       1.35795000       4.61467000       3.62292000      -1.17710100      -0.19986100       1.26666800      -0.48302691       0.36289962       0.74537762
Fe       4.95776000       4.27854000       4.85033000       2.20080800       0.77958800      -0.24901600       0.75648365      -0.09149366       0.23024766
Fe       2.90817000       3.15860000       4.25698000      -0.87756600      -0.39846100       1.25184100       0.24284893      -0.34549409       0.47139686
Fe       4.97903000       5.64594000       1.36431000      -0.69131800      -0.04726100      -0.44322300      -0.56438099       0.25931745      -0.61679976
Fe       1.21860000       5.04312000       0.28941000      -0.01329800       1.97019200      -1.42146800       0.40380856       1.07864300      -0.97793352
Fe       4.19049000       3.99341000       2.69223000       2.99720200       1.59092800      -0.45710200       0.87812575       0.85608734      -0.18794807
Fe       2.24232000       4.14646000       1.80095000       1.64412400      -0.32215200      -0.07592500       1.04325702      -0.48610093       0.04371704
15
Lattice="5.664536 0.0 0.0 0.0 5.664536 0.0 0.0 0.0 5.664536" Properties=species:S:1:pos:R:3:REF_forces:R:3:MACE_forces:R:3 config_type=Fe13Si1B1 REF_energy=-111.97852358 MACE_energy=-51.176238110868205 pbc="T T T"
B        0.06916000       5.66432000       5.18689000       0.12008200      -0.64043800       0.01360000       0.09318166      -0.58626956       0.01388297
Si       0.02740000       2.72248000       2.59682000      -0.95092500       0.36379500       0.29566700      -0.62465161       0.26420145       0.13392904
Fe       0.14116000       5.54768000       2.85133000       0.08282300      -0.00674100       0.52027800      -0.49806818       0.22372591       0.00530592
Fe       5.56722000       2.97052000       5.53670000      -0.67309900       0.24460700       0.18564600      -0.05761124      -0.19286841       0.30276010
Fe       2.56501000       0.00405000       5.40440000       0.68434000      -0.27592000       0.60718700       0.64151310      -0.16911408       0.61102688
Fe       2.97079000       2.77487000       5.60913000       0.61990200      -0.30745300       0.59180600      -0.19229533      -0.11135710       0.10156658
Fe       3.14055000       2.58779000       2.39876000      -0.26535600       0.46856000       0.15364600      -0.14275100       0.24353922       0.15875630
Fe       1.27023000       1.29362000       1.29220000       0.59662900      -0.36144800      -0.82067800      -0.03935437       0.13525785      -0.61293195
Fe       1.26884000       1.40412000       4.24821000      -0.00500300       0.79776500      -0.57479700      -0.00107145       1.06850025      -0.37749356
Fe       1.43809000       4.26211000       1.36341000       0.07769500      -0.05884300      -0.22592600       0.13377328      -0.36614133      -0.08290807
Fe       1.52070000       4.14480000       4.13170000      -0.18321100      -0.27105400      -0.71528600      -0.22368068      -0.72122729      -0.40922515
Fe       4.46936000       1.09579000       0.98330000      -0.11971100       0.01004100       0.24750400       0.27411523       0.31612797       0.03759691
Fe       4.16783000       1.22547000       4.11325000       0.42899800      -0.08684700      -0.08842400       0.68261962       0.14511017       0.18040628
Fe       4.22673000       4.46813000       1.30140000       0.09689500      -0.37725000      -0.41990000       0.08764759      -0.42421226       0.00747457
Fe       4.20815000       4.21553000       4.01300000      -0.51005900       0.50122500       0.22967700      -0.13336662       0.17472721      -0.07014683
15
Lattice="5.664536 0.0 0.0 0.0 5.664536 0.0 0.0 0.0 5.664536" Properties=species:S:1:pos:R:3:REF_forces:R:3:MACE_forces:R:3 config_type=Fe13Si1B1 REF_energy=-111.93959828 MACE_energy=-50.949608540344364 pbc="T T T"
B        0.52210000       0.05440000       5.04153000      -0.83789800      -0.96014800      -0.42271900      -0.29785776      -0.53594017      -0.46855010
Si       5.59498000       2.75302000       2.63746000      -0.41285400      -0.16722200       0.32382300      -0.12937870      -0.21839724      -0.19677807
Fe       0.17766000       0.05624000       2.77011000      -0.22089500       0.44737300       1.17937900      -0.38046648       0.08297597       0.57201072
Fe       5.59682000       2.78032000       5.61495000      -0.22239300       0.41310500      -0.03657000      -0.01694343       0.27727882      -0.26705101
Fe       2.71989000       5.37982000       5.43745000       0.17724800       0.17436200       0.47840000      -0.24920645       0.71811037       0.22247377
Fe       2.70157000       2.72483000       5.65192000       0.89303700       0.73165300       0.81071700       0.47297164       0.49165475       0.31770344
Fe       2.97278000       2.68063000       2.60608000       0.64664100       0.39382500      -0.89779500       0.62730965       0.56054048      -0.68540532
Fe       1.04462000       1.15381000       0.98518000       0.85892600      -0.28038300       0.02628300       0.57224834       0.18474834       0.24209568
Fe       1.65813000       1.50296000       3.98982000      -0.38663100      -0.26210300      -0.11433700      -0.54538805      -0.00864225       0.36188391
Fe       1.30631000       4.30849000       1.24352000      -0.41412900       0.11159100       0.24697100      -0.36971760      -0.29398276       0.26173092
Fe       1.58576000       4.06734000       3.99489000      -1.17533100      -0.00634600      -0.85725300      -0.83882379      -0.41115810      -0.38631760
Fe       4.12820000       1.13618000       1.10587000       0.62554700       0.31979100       0.22031500       0.60466400       0.32399480       0.19799817
Fe       4.25787000       1.24949000       4.17529000      -0.08913900      -0.07677300       0.23295600       0.04259098       0.13933327       0.28102520
Fe       4.35495000       4.45297000       1.34581000      -0.13361000      -0.53467800      -0.51744000       0.06148297      -0.81525918      -0.09624405
Fe       4.41108000       4.43949000       4.32316000       0.69148200      -0.30404700      -0.67272800       0.44651469      -0.49525710      -0.35657565
15
Lattice="5.664536 0.0 0.0 0.0 5.664536 0.0 0.0 0.0 5.664536" Properties=species:S:1:pos:R:3:REF_forces:R:3:MACE_forces:R:3 config_type=Fe13Si1B1 REF_energy=-111.86184603 MACE_energy=-49.80600918574855 pbc="T T T"
B        1.50863000       1.78767000       4.90152000      -0.44122900      -0.13378600       0.30200900       0.01896812      -0.28743398       0.13509579
Si       4.79549000       2.24346000       2.10133000      -2.02834800      -2.06166200      -2.37230900      -0.32048440      -0.47160804      -1.05193634
Fe       3.20380000       0.75276000       3.12970000      -0.26094900      -0.46491400       0.88121400       0.25966017       0.06234355       1.00589352
Fe       2.86828000       3.52346000       0.83472000       0.63525800      -0.40693500      -0.10677300       0.13988636      -0.52137203      -0.28294183
Fe       0.30208000       0.41203000       3.59178000       0.43152100       1.99959300       0.71104900       0.13253283       0.99194135      -0.06900110
Fe       4.64149000       4.82814000       4.64319000      -2.32204000      -0.32641000       1.26424000      -1.81231193       0.30739308       0.54342508
Fe       1.38623000       5.04883000       1.95913000       0.13404600      -0.76597900       0.26900800       0.16705307      -0.69274544       0.34374707
Fe       0.01651000       0.69762000       0.56316000       0.43357300       0.50429600      -0.59615700       0.17059341       0.47115044      -0.16368990
Fe       1.71843000       1.81951000       1.96274000      -0.50569400       0.44278300      -1.08150200      -1.29548296       0.38065800      -0.36914079
Fe       2.49328000       3.31853000       3.75571000       0.60663900       0.53722000       0.22889400       0.34566736       0.15482925       0.27039366
Fe       0.35204000       3.39611000       0.17394000       0.28417100      -0.58935200       0.45847800       0.34744700      -0.42313362       0.88009754
Fe       0.11270000       3.44811000       3.40342000       2.52442400       0.78461300       1.86263000       1.07424013       0.08643978       0.08984354
Fe       4.37430000       4.86511000       1.96411000       0.02203300      -0.44143500      -0.21812100       0.89518608      -0.49739150       0.20837779
Fe       1.91304000       5.29856000       5.45252000       0.85584700       1.12077600      -1.36953800       0.43119262       0.45651627      -1.33659067
Fe       3.73798000       1.56980000       5.38787000      -0.36925300      -0.19880800      -0.23312100      -0.55414786      -0.01758712      -0.20357335
15
Lattice="5.664536 0.0 0.0 0.0 5.664536 0.0 0.0 0.0 5.664536" Properties=species:S:1:pos:R:3:REF_forces:R:3:MACE_forces:R:3 config_type=Fe13Si1B1 REF_energy=-121.96103282 MACE_energy=-49.872108589453845 pbc="T T T"
B        1.89945000       0.62627000       3.85277000      -2.50069800       2.16966800      -1.53918900      -0.72051981       0.68813456       0.28490161
Si       0.20120000       2.04269000       2.64503000       1.02931600      -0.66199100      -2.72694900       0.00782272      -0.18127593      -0.96250140
Fe       2.66066000       5.42797000       2.26357000       0.53979700      -0.03646200      -1.31830900       0.47256047      -0.48950557      -0.54879517
Fe       2.90276000       2.67008000       2.15492000      -1.83815700      -0.38139400      -2.84113500      -1.20737726       0.26028137      -0.96725745
Fe       3.76617000       1.41579000       3.61058000       1.59818700      -1.99316500       0.96094000       1.49905165      -0.40523206       0.31401964
Fe       4.35629000       3.78643000       3.20548000      -0.08184500       1.05317100       0.76552100      -0.33685187       0.28350403       0.49334790
Fe       4.47628000       4.06991000       0.64852000      -0.83953300      -0.22453300       0.86736600      -0.72696633       0.11232704       0.19755941
Fe       4.19523000       1.12987000       0.84517000       0.20926900       0.78044000      -1.95195400       0.34382205      -0.09766677      -0.28164141
Fe       1.20944000       0.98558000       0.54562000       0.36331500       0.64694800       1.15320100       0.17419766       0.32144092       0.36780484
Fe       2.93679000       5.24715000       4.85612000       1.78737200      -1.05335100       3.04321700       0.15982767       0.02057743       0.41954298
Fe       2.46429000       3.02068000       4.78866000      -0.08418600      -0.93215200       0.71303400      -0.00064304      -0.55465060      -0.01909567
Fe       5.64539000       2.77685000       4.69631000       0.33002600      -0.76378800       3.33994500       0.41587976      -0.31415463       1.03007307
Fe       1.14045000       3.92385000       0.99225000      -0.27335200       0.02348800       0.25089500       0.10210287       0.14881043      -0.26638907
Fe       0.17432000       5.38924000       4.59788000      -0.87103600      -0.20642700       0.99417600      -0.59393119      -0.65086289       0.54446429
Fe       5.41134000       5.44443000       2.36685000       0.63152700       1.57954900      -1.71076000       0.41102466       0.85827267      -0.60603357
15
Lattice="5.664536 0.0 0.0 0.0 5.664536 0.0 0.0 0.0 5.664536" Properties=species:S:1:pos:R:3:REF_forces:R:3:MACE_forces:R:3 config_type=Fe13Si1B1 REF_energy=-109.57699008 MACE_energy=-49.57943435441927 pbc="T T T"
B        1.60964000       1.20953000       3.30762000      -0.01479600      -0.54483200       0.36412700       0.00140486      -0.13336105      -0.01232683
Si       1.95419000       3.78303000       0.40477000       2.58923000       0.78612200      -1.61162900       0.97578236       0.05492502      -0.25697062
Fe       3.57229000       4.89724000       1.78218000      -0.69680300       0.94883800       2.04020100      -0.57949594       0.34984797       0.62341997
Fe       3.21513000       2.00319000       1.86162000       1.30615200      -1.04311700      -1.34636300       0.77092645      -0.40937618      -0.38703252
Fe       5.12136000       1.05340000       3.05836000       0.48907600      -0.57242700       0.35981000       0.41363498      -0.61557058       0.17429819
Fe       5.33303000       3.41064000       3.19935000      -1.19050900       0.64225800       0.16946300      -0.44542463       0.43654474      -0.09503971
Fe       4.69645000       3.56410000       0.59057000       0.42357200      -2.45414500       1.39631500       0.65550324      -1.26029709       0.71655233
Fe       5.00397000       0.79608000       0.67759000       0.28054300       1.18762000       0.69531900      -0.35324619       0.32822639       0.32200948
Fe       1.02131000       2.39370000       1.67631000      -1.48205000      -1.99677700       1.89497700      -0.76042488      -0.33822590       0.49789877
Fe       4.49205000       4.87623000       4.87240000      -1.22864200       1.13873400      -2.26444700      -0.66063978       0.59583318      -0.97264931
Fe       3.40200000       1.47027000       4.46233000      -0.01871000      -0.18409200       0.67173000       0.20499119      -0.54867021       0.67280191
Fe       0.59504000       2.14210000       5.17631000       0.66645200      -0.32293300      -3.32851400       0.59928512       0.03964986      -1.81440454
Fe       1.14446000       5.07983000       4.43636000      -0.37358200       1.06798600      -0.87155500      -0.23895985       0.30297964      -0.52048176
Fe       2.52599000       3.18146000       3.48749000      -0.80261000       1.79870400       1.25168000      -0.78364586       1.48296858       0.53016475
Fe       0.91985000       5.18762000       1.86613000       0.05267700      -0.45193900       0.57888600       0.20030893      -0.28547438       0.52175989
15
Lattice="5.664536 0.0 0.0 0.0 5.664536 0.0 0.0 0.0 5.664536" Properties=species:S:1:pos:R:3:REF_forces:R:3:MACE_forces:R:3 config_type=Fe13Si1B1 REF_energy=-111.24757227 MACE_energy=-50.237570032686996 pbc="T T T"
B        2.53656000       2.62317000       3.66583000      -0.11566700      -0.22978700       0.53017200       0.06669288       0.24096803       0.34287379
Si       0.67483000       4.27329000       2.69225000       0.92910600       0.68145900       0.71622000       0.68432462       0.10015623       0.00735586
Fe       5.14560000       5.37767000       1.05479000      -0.04263700       0.54874800      -0.34508500      -0.30416410       0.13668929       0.17268096
Fe       5.17725000       2.96978000       1.28337000      -0.94481700       0.15150400      -1.65556500      -0.75935821       0.28342827      -0.70747181
Fe       4.74580000       3.13666000       4.02461000      -0.25444200      -0.82574700      -0.11998600      -0.01518827      -0.40633020      -0.62984460
Fe       0.33821000       1.51110000       2.57588000       1.22080500      -1.49602800       0.46012600       0.93520455      -0.62166303       0.61554254
Fe       3.09808000       4.41167000       2.55098000       1.58954700      -0.62340300      -0.59486000       1.13787237      -0.49292667      -0.36019862
Fe       4.73088000       0.16933000       4.32731000       1.21238200      -0.98254900      -0.92008400       0.40244808      -0.86366969      -0.62167663
Fe       3.65998000       1.37781000       0.06620000      -0.53114300       0.39644200       0.40797800      -0.43510712       1.04281205      -0.04792368
Fe       3.63898000       1.27668000       2.55773000      -0.56432500       0.60761700      -1.09420600      -0.03474525      -0.05956521      -0.75413475
Fe       3.30156000       4.03302000       5.51710000       0.66273100       0.68309200      -0.51252300       0.70042111       0.49289669      -0.31749464
Fe       2.04972000       2.93776000       1.03536000      -1.23701100      -0.98796000       1.66434700      -0.90595049      -0.56064427       1.32679668
Fe       2.16302000       5.60665000       3.99134000      -0.76618900       1.59088200       1.80303200      -0.31588728       0.85811037       0.80428701
Fe       0.95543000       1.84266000       4.95473000       0.27866900      -0.07002100       0.06014100      -0.21475802      -0.39801507       0.09482986
Fe       2.02568000       0.02468000       0.99960000      -1.43701000       0.55575000      -0.39970700      -0.94180485       0.24775321       0.07437804
15
Lattice="5.664536 0.0 0.0 0.0 5.664536 0.0 0.0 0.0 5.664536" Properties=species:S:1:pos:R:3:REF_forces:R:3:MACE_forces:R:3 config_type=Fe13Si1B1 REF_energy=-108.79062395 MACE_energy=-49.262777567970076 pbc="T T T"
B        5.36400000       3.87568000       4.45905000       0.44648400       0.57032200       0.28604800      -0.01305666       0.26323378      -0.07782452
Si       3.93387000       4.96403000       3.15711000      -4.30606800      -2.31482200      -2.68264300      -1.05365130      -0.62351687      -0.92327954
Fe       3.00216000       0.92096000       1.44117000      -0.76996800       0.42082500      -0.07835300      -0.06788748       0.17391780       0.00655936
Fe       1.34518000       5.62588000       2.73234000       2.41172500       0.19969700       0.20083700       1.69586920      -0.35680187       0.43593481
Fe       0.44730000       2.09377000       4.98703000       1.17940300       0.68255400       0.66504100       0.85837989       0.34734976      -0.23313634
Fe       0.30923000       3.79563000       2.39919000      -0.97580900      -1.20085800      -1.00234600      -0.50864951       0.20026063      -0.22312291
Fe       0.18648000       1.06356000       1.31692000      -0.60348600       1.79501500       0.12312700      -0.16368772       0.92835129       0.22071549
Fe       4.00265000       2.83038000       0.00570000       0.03088500      -0.70677300      -0.45368100      -0.11790705      -0.49170015      -0.14609379
Fe       5.37135000       0.30945000       4.05759000       2.43746500       1.21842000       2.05861100      -0.45681878      -0.00120984       0.56591304
Fe       2.32985000       3.12186000       1.52540000       0.40818200       0.55373600       0.67629300      -0.08543959       0.53135136       0.38508706
Fe       2.77320000       0.82160000       4.63749000       0.11143500       0.28254000       0.06072400       0.42886425       0.20501682      -0.21773060
Fe       1.20304000       4.94889000       5.64649000       0.50304000      -0.54997900       0.60819900      -0.19418788       0.11404777       0.85644195
Fe       4.43330000       2.29054000       2.94368000      -1.10290800       0.42652200       0.72577900      -0.74146162       0.05009216       0.75467440
Fe       4.45738000       5.14386000       0.73674000       0.07827300      -0.88309100      -1.20270400       0.29561984      -1.20861893      -0.64962035
Fe       2.20236000       3.55424000       4.11335000       0.15134500      -0.49410700       0.01507000       0.12401442      -0.13177371      -0.75451808
15
Lattice="5.664536 0.0 0.0 0.0 5.664536 0.0 0.0 0.0 5.664536" Properties=species:S:1:pos:R:3:REF_forces:R:3:MACE_forces:R:3 config_type=Fe13Si1B1 REF_energy=113.06017811 MACE_energy=-49.26992758577478 pbc="T T T"
B        1.39848000       0.19193000       0.61048000      -4.08297800       9.29302800       8.69098400       0.13481266       0.52844318       0.72971700
Si       2.92490000       2.16030000       2.14060000      -2.63496600       9.58037000      -0.49561900       0.10104236      -0.36109399       0.17787615
Fe       2.86073000       2.70503000       5.26584000       4.32356800      10.20896900      -4.70309300       0.89212969      -0.79691633      -0.37769649
Fe       4.47802000       3.64784000       3.04881000      -8.75739200       8.66530300      12.20431400      -0.13420925      -0.08673940       1.61250349
Fe       0.21576000       2.05514000       5.23160000     -18.24380600     -12.70694800      22.88283100       1.41054457       0.14647428      -0.36948623
Fe       0.44166000       2.36030000       2.32519000       9.91181000      13.04098500      -5.34425400       0.67580881      -0.43430442      -0.37916706
Fe       2.03954000       3.82953000       1.07367000      -9.51630500       5.90074000      24.04305300      -1.06587502       0.68356519       0.49518751
Fe       1.39295000       3.86962000       3.86875000       5.08493300      -5.56046400     -11.44166200       0.27931997      -0.22361245      -0.19587243
Fe       4.42805000       1.04262000       3.76613000      10.93879500       4.90624100      -3.25114800      -0.49380111       0.90137071       0.21421797
Fe       4.44753000       1.10914000       0.85325000      15.14670800      12.45203200      -7.47268500      -0.24954956       0.03685387       0.26363214
Fe       3.06886000       5.29358000       5.21060000      31.03933500     -34.73641400       1.35306500       0.47873166      -0.48483741      -0.33463641
Fe       4.80801000       3.61880000       0.94850000       7.81841300       1.86551900       0.92546600      -1.22484221      -0.12344896      -0.45856409
Fe       0.75179000       0.26400000       3.08937000     -19.58866100       1.56533600      18.55626500       0.60779965      -0.27940036      -0.28338796
Fe       3.22665000       5.43114000       2.39493000      -7.30714900       7.24190400      -9.20324300      -1.02547904       0.01815535      -0.41994374
Fe       0.02250000       5.10600000       5.27962000     -14.13230600     -31.71660300     -46.74427400      -0.38643316       0.47549074      -0.67437987
15
Lattice="5.664536 0.0 0.0 0.0 5.664536 0.0 0.0 0.0 5.664536" Properties=species:S:1:pos:R:3:REF_forces:R:3:MACE_forces:R:3 config_type=Fe13Si1B1 REF_energy=-108.9830283 MACE_energy=-49.343974297681065 pbc="T T T"
B        0.13992000       2.30465000       0.77632000      -2.78401400      -0.82058500       0.46110900      -0.78836535      -0.53729736       0.30819564
Si       2.50353000       2.08237000       3.22653000       0.57446500       0.76610200      -0.17485000       0.10156224       0.37480316      -0.19159362
Fe       1.09387000       3.72736000       2.17845000      -2.33299800      -0.65384800       2.12861500      -1.02010686      -0.37059403       0.54518503
Fe       3.95659000       1.68198000       5.11388000       0.36857700       0.27726400       0.90410800       0.09103651       0.02720489       0.88051281
Fe       3.24055000       0.05102000       1.45794000       1.85872300       1.81044900       1.22583000       0.34618394       1.04542178       0.62872520
Fe       1.11690000       0.40651000       2.78471000       0.23956900      -0.40930100      -0.23173800       0.30017283      -0.05655157      -0.24911219
Fe       4.54933000       5.58716000       3.59286000      -0.31901000      -1.37235600       0.15251700       0.15324300      -0.69918457      -0.09758380
Fe       2.02209000       2.17177000       0.81391000       2.28654300       0.57567400       0.95002900       0.55210624       0.15537214       0.79371920
Fe       2.49600000       4.37528000       3.91048000       1.01885200       0.91593900      -0.12431400      -0.15102936       0.04341833       0.10197848
Fe       1.55562000       0.82810000       4.97050000      -1.41574600      -0.55119900      -1.41023600      -0.02522654       0.16523022      -0.48219953