1
Lattice="18.0 0.0 0.0 0.0 18.0 0.0 0.0 0.0 18.0" Properties=species:S:1:pos:R:3:REF_forces:R:3:MACE_forces:R:3 config_type=IsolatedAtom REF_energy=-3.283081 MACE_energy=-3.283081 pbc="T T T"
Fe       0.00000000       0.00000000       0.00000000       0.00000000       0.00000000       0.00000000      -0.00000000      -0.00000000      -0.00000000
1
Lattice="18.0 0.0 0.0 0.0 18.0 0.0 0.0 0.0 18.0" Properties=species:S:1:pos:R:3:REF_forces:R:3:MACE_forces:R:3 config_type=IsolatedAtom REF_energy=-0.81049333 MACE_energy=-0.81049333 pbc="T T T"
Si       0.00000000       0.00000000       0.00000000       0.00000000       0.00000000       0.00000000      -0.00000000      -0.00000000      -0.00000000
1
Lattice="18.0 0.0 0.0 0.0 18.0 0.0 0.0 0.0 18.0" Properties=species:S:1:pos:R:3:REF_forces:R:3:MACE_forces:R:3 config_type=IsolatedAtom REF_energy=-0.27559471 MACE_energy=-0.27559471 pbc="T T T"
B        0.00000000       0.00000000       0.00000000       0.00000000       0.00000000       0.00000000      -0.00000000      -0.00000000      -0.00000000
10
Lattice="9.0 0.0 0.0 0.0 9.0 0.0 0.0 0.0 9.0" Properties=species:S:1:pos:R:3:REF_forces:R:3:MACE_forces:R:3 config_type=Fe5B1Si4 REF_energy=-44.58554767 MACE_energy=-43.21963306787106 pbc="T T T"
Fe       3.50176000       8.99673000       3.09396000       0.95435000      -0.45803800       0.21474200       1.50194964      -0.28395059       0.47226291
Fe       6.43801000       1.81225000       6.74888000       1.10970900      -0.66476800      -1.17007400       1.05547218      -0.83417247      -1.64529103
Fe       2.41193000       0.16613000       4.88253000       0.30913200      -0.89996000       0.17011800       0.92757796      -1.02202459      -0.01169549
Fe       8.52164000       3.22369000       0.34244000      -0.58790500      -0.47306700      -0.37861700      -0.31893488      -0.21404649      -0.39469459
Fe       5.66627000       2.92739000       3.87411000       4.77509600       2.80733600       2.40000400       3.23899922       2.90325349       2.20951071
B        5.18442000       1.13758000       3.40139000      -0.73957100       0.38065100       0.44676100      -1.73462595       0.01398440       0.42603713
Si       7.10242000       1.59600000       3.97694000       2.28029300      -3.67324000       1.18634800       2.69951504      -3.67459803       1.51818593
Si       7.70822000       8.86280000       6.25904000      -0.73207200       1.84563600      -0.48266000      -0.94408159       1.69617405      -0.33688731
Si       3.91832000       3.09724000       3.40175000      -6.85054500      -1.08983400      -1.75602400      -5.57679537      -1.38838601      -1.57403624
Si       3.63788000       6.78794000       4.49538000      -0.51848800       2.22528500      -0.63059800      -0.84907624       2.80376625      -0.66339201
10
Lattice="9.0 0.0 0.0 0.0 9.0 0.0 0.0 0.0 9.0" Properties=species:S:1:pos:R:3:REF_forces:R:3:MACE_forces:R:3 config_type=Fe5B1Si4 REF_energy=-48.18464377 MACE_energy=-49.094347942286554 pbc="T T T"
Fe       7.72908000       2.13801000       3.67226000      -0.72140700       1.38590200       0.18439100      -0.57049108       0.80106279      -0.06574804
Fe       2.56544000       0.37534000       3.55582000       0.62580800       1.02854400      -0.21951900       1.43691772       1.23007242      -0.31263971
Fe       5.84797000       2.87648000       5.04299000      -0.51992300      -1.03088200      -1.60504700      -1.12899071      -1.55504150      -0.68524774
Fe       2.00259000       1.62931000       5.21757000       0.16709900       0.68697000      -1.46342200       0.26785908       0.73048932      -1.58401838
Fe       3.04146000       3.03902000       3.03634000       2.84541400      -0.11631900       1.57660000       2.84909553      -0.29722867       1.87429402
B        4.26036000       4.67435000       3.72342000       0.68065500      -0.16735200      -1.56590600       0.93964799      -0.10575375      -2.27470412
Si       6.34493000       4.18783000       3.43892000      -0.40775000      -0.06673100      -0.63978400      -0.68437990       0.47013389      -0.97620028
Si       0.98363000       2.81182000       2.85911000      -2.44913300      -1.45501500       1.18349900      -2.00680103      -1.46656440       1.27069354
Si       4.97672000       0.35177000       3.88032000      -0.44220000       1.58116100       0.17191700      -1.07104672       2.40237780       0.25013780
Si       4.49316000       6.21641000       2.06194000       0.22143900      -1.84627800       2.37727300      -0.03181087      -2.20954790       2.50343290
10
Lattice="11.0 0.0 0.0 0.0 11.0 0.0 0.0 0.0 11.0" Properties=species:S:1:pos:R:3:REF_forces:R:3:MACE_forces:R:3 config_type=Fe5B1Si4 REF_energy=-11.58855075 MACE_energy=-35.57660079496242 pbc="T T T"
Fe       8.76471000       0.00946000       6.88513000      -0.22819700       0.12237200      -0.55543600      -0.00000000      -0.00000000      -0.00000000
Fe       2.63377000       1.33277000       3.45207000      -0.77576300      -0.08136400      -0.00027500      -0.58581776      -0.10265845      -0.50008591
Fe       9.34605000       7.55219000       3.04608000      -1.57311900      -1.03473800      -0.15487700      -1.17710246      -0.73853814       0.00531180
Fe       6.36389000       7.12183000       3.09324000       1.09683100       0.04242100      -0.12816300       1.62807960       0.23528016      -0.02573893
Fe       1.35866000       0.14865000       4.85122000       1.24564900       1.43265900      -2.24078300      -0.41033237       0.47654455      -1.10946459
B        0.74424000       4.87887000       2.93866000      -1.13359500      -0.78566000      -1.94809000      -0.80610815      -0.74808934      -2.48618877
Si       0.41110000       1.07145000       2.73658000       1.34178700       0.50456200      -0.25058800       0.58378278       0.79469997      -0.62471213
Si       0.39736000       3.73439000       0.50956000      -1.07905800      -1.52336200       2.18566600      -0.73711992      -1.06248706       3.30204335
Si       9.29283000       2.08457000       0.89045000       2.55214100       0.43757800       0.40081500       2.74006635       0.70382522       0.70381481
Si       2.63700000       1.37373000       1.21644000      -1.44667700       0.88553200       2.69173100      -1.23544807       0.44142309       0.73502037
10
Lattice="11.0 0.0 0.0 0.0 11.0 0.0 0.0 0.0 11.0" Properties=species:S:1:pos:R:3:REF_forces:R:3:MACE_forces:R:3 config_type=Fe5B1Si4 REF_energy=-38.14997444 MACE_energy=-41.96876928672338 pbc="T T T"
Fe       0.55560000       8.19331000       7.06229000       0.60700700      -1.87987400       0.40247700       0.11369045      -0.81941206       0.37617714
Fe       0.49601000       2.54487000       7.78872000      -1.62914400       1.44061600       0.72816300      -1.62133734       1.55259603       0.67558979
Fe      10.07332000       3.88379000       9.42053000       1.49055100       0.96476400      -0.05327700       1.04834806       1.39113296       0.66469639
Fe       4.45932000       9.07691000       6.11289000       0.24660800      -0.52821700      -0.02378300       0.53680494      -0.62715253       0.02240367
Fe       9.54221000       0.53076000       0.28158000      -0.51209300       1.49842300      -0.39218500      -0.68465607       1.47287331      -0.27545986
B       10.69505000       5.70310000       8.40523000       0.71876200      -1.05034900      -0.26069900       1.00883302      -1.88396454      -0.65496151
Si       9.01619000       3.31434000       7.76349000       0.22101700      -0.39376100      -0.82483600       0.36287252      -0.22598784      -0.87234062
Si       1.50005000       6.10934000       7.36041000      -1.47354600       0.22179200       0.82993100      -1.58396645      -0.06470373       0.76201593
Si       8.29851000       3.23195000      10.75936000       1.25238600      -0.70606300      -0.69191000       1.63204859      -1.16331396      -0.78292124
Si       3.13187000      10.62875000       6.05729000      -0.92154800       0.43266900       0.28612000      -0.81263771       0.36793236       0.08480031
10
Lattice="11.0 0.0 0.0 0.0 11.0 0.0 0.0 0.0 11.0" Properties=species:S:1:pos:R:3:REF_forces:R:3:MACE_forces:R:3 config_type=Fe5B1Si4 REF_energy=-39.54850766 MACE_energy=-43.79346030708969 pbc="T T T"
Fe       7.32260000       2.25273000       9.60151000      -0.81068000       1.95759200       1.52424100      -0.83934751       1.90476601       1.68138904
Fe       5.30456000       3.18059000       0.62935000       3.59407800       0.60301100       0.45004200       3.96711462       0.63381527       0.04285187
Fe       5.70290000       5.32015000      10.23784000      -0.55638700      -0.41691100      -0.58631200      -0.76242009      -1.20629097       0.00253566
Fe       7.71673000       4.32859000       0.10409000      -1.51783000      -0.48364700      -0.94636500      -1.65709920      -1.14663174      -0.90568188
Fe       5.73415000       7.17747000       8.80515000      -0.19559000      -2.26799700       1.43769300      -0.54260724      -1.01221709       0.59384124
B        3.53335000       2.44513000       3.14396000       1.80602500       1.42469000       1.46529900       2.20466181       0.94846004       1.55264390
Si       3.05847000       4.99331000       9.56994000       1.58460600       0.22347600       0.29443400       1.96859867       0.03751460       0.68575004
Si       4.66874000       2.05360000       5.35076000      -1.23296500       0.33348000      -2.53096100      -1.64322039       0.51089612      -3.11400533
Si       3.35109000       3.37679000       0.23198000      -2.51854700       0.79060000      -0.76406600      -2.78592569       0.72541409      -0.47640999
Si       4.02675000       4.41289000       2.41329000      -0.15270900      -2.16429400      -0.34400600       0.09024503      -1.39572634      -0.06291455
10
Lattice="11.0 0.0 0.0 0.0 11.0 0.0 0.0 0.0 11.0" Properties=species:S:1:pos:R:3:REF_forces:R:3:MACE_forces:R:3 config_type=Fe5B1Si4 REF_energy=-30.22050192 MACE_energy=-43.42676835283157 pbc="T T T"
Fe       7.51027000      10.11418000       2.18625000      -1.69790900       1.72973200      -1.19644900      -0.88958239       2.58841717      -0.67537737
Fe       6.52329000       1.24583000       0.98294000       2.87583100      -1.88416600       0.59355300       2.25352596      -0.49867610       1.77964678
Fe       8.50320000       0.98219000       3.23617000       1.14940800      -1.93965800      -1.01181700       0.25212211      -2.75371091      -2.18248582
Fe       8.81725000       8.60479000       1.96311000       1.70133000      -1.33465300       0.85149000       1.14815159      -1.01173238      -0.03697084
Fe       9.16079000       2.26416000       1.64872000      -0.92180800       1.06168500      -1.01542500      -1.38043241       0.68782836      -0.75356553
B        8.94441000       4.16897000      10.47399000      -1.12511400       0.54375800       0.63670800      -1.14793765       0.53418361       0.45854195
Si      10.42398000       4.23416000       1.05026000      -1.52480000      -0.05410100      -1.01659500      -1.71085935      -0.47468447      -1.48502008
Si       7.56198000       2.31002000       4.34386000      -1.29363800       1.80115300       0.97958300      -0.94120186       1.53464319       0.43668923
Si       8.52672000       8.61906000      10.86161000      -0.94443500       0.65405000      -0.31886100      -0.33330541       0.44609374       0.63071579
Si       6.81456000       4.96874000       9.06450000       1.78113500      -0.57779900       1.49781200       2.74951940      -1.05236221       1.82782589
10
Lattice="11.0 0.0 0.0 0.0 11.0 0.0 0.0 0.0 11.0" Properties=species:S:1:pos:R:3:REF_forces:R:3:MACE_forces:R:3 config_type=Fe5B1Si4 REF_energy=-36.59236839 MACE_energy=-44.896867136534944 pbc="T T T"
Fe       3.58274000      10.79851000      10.73667000       0.11897900       0.22630100      -0.04976800      -0.00000000      -0.00000000      -0.00000000
Fe       1.22875000       2.49300000       7.21708000       2.26097500      -1.53625800       1.07649700       2.17738115      -1.29906104       1.23895917
Fe       0.83190000       3.93076000       3.48688000       1.35086000      -1.69250200       0.45489600       1.22946323      -1.62795019      -0.03799796
Fe       9.39560000       2.93064000       6.23859000      -2.27414300      -0.91782300      -0.86979000      -3.27210291      -0.51683649      -1.34643076
Fe       1.68648000       4.78764000       5.33563000      -2.42207400      -1.78775100      -0.34755700      -1.32874595      -1.22935462       0.66544504
B        0.09146000       3.23421000       6.27209000       0.33374200       3.18943500      -3.08739300       0.61961230       2.88875240      -3.37652921
Si      10.14804000       1.29848000       4.70398000      -0.27194000       2.69997500       0.88966000       0.38196062       2.23063398       1.02448043
Si       7.91960000       4.68330000       6.38399000       1.00571800      -0.89791700      -1.90531900       1.15260471      -0.90841258      -1.68316821
Si       7.87407000       3.80560000       3.83659000       1.69436900       0.65761100       2.09344900       1.58067568       0.43550633       2.08311356
Si      10.18862000       4.97429000       4.13294000      -1.79648600       0.05892800       1.74532400      -2.54084883       0.02672222       1.43212795
10
Lattice="11.0 0.0 0.0 0.0 11.0 0.0 0.0 0.0 11.0" Properties=species:S:1:pos:R:3:REF_forces:R:3:MACE_forces:R:3 config_type=Fe5B1Si4 REF_energy=-37.97135349 MACE_energy=-40.79546986896983 pbc="T T T"
Fe       9.03194000       7.52207000       3.76953000      -0.41692800       1.06213800       1.36215600       0.14320670       1.34145840       0.96783156
Fe      10.13763000      10.16701000       4.97367000      -1.48414600      -0.40832500      -0.11078200      -1.06925765      -0.98686448      -0.44249106
Fe       4.72985000       7.86062000       7.54580000      -0.46341600      -0.84233600       0.25668000      -0.66182726      -1.15757751      -0.33515636
Fe       8.27206000       8.93115000       5.41966000       2.10203900       0.88604100      -1.49179500       0.85918598       0.88791498      -1.12260176
Fe       4.77388000       2.87329000       5.35297000      -0.27504900      -0.53922100      -0.84728100      -0.94665848      -0.14578029      -0.72111505
B        4.61354000       3.86066000       6.74103000      -0.14362800      -0.14915200      -1.57005500      -0.61785529       1.05322417       0.28644693
Si       1.64433000       3.13639000       3.91354000       3.75707800      -0.87803400      -0.36408100       3.67287065      -0.81405637      -0.75288077
Si       3.74801000       5.66030000       6.94882000       0.45210300       0.36957600       0.68487900       1.24345374       0.33386802       0.30634725
Si       8.69515000       0.60160000       4.24738000      -0.18983800      -0.10747800       0.51028900       0.14302361      -1.13675162       0.61511868
Si      10.87890000       3.62141000       4.73344000      -3.33821400       0.60679200       1.56999000      -2.76614200       0.62456471       1.19850059
10
Lattice="11.0 0.0 0.0 0.0 11.0 0.0 0.0 0.0 11.0" Properties=species:S:1:pos:R:3:REF_forces:R:3:MACE_forces:R:3 config_type=Fe5B1Si4 REF_energy=-19.85588119 MACE_energy=-34.50064090356726 pbc="T T T"
Fe       0.38446000       1.64586000       0.19247000      -0.31544900       0.99906300      -1.16531000      -0.43539884       0.13849487      -1.01924239
Fe       4.73202000       7.12132000       7.31276000       0.31929800      -0.23556100       1.39875500       0.19779555       0.56149049       1.98549396
Fe       0.36789000       2.73674000       6.71847000       0.18431700      -0.99436400      -3.07194200      -0.21294537      -0.88398621      -2.33551618
Fe      10.07665000       2.07009000       8.11408000      -1.05625300       0.13475800      -0.04421700      -0.71378048      -1.07114268       0.96034852
Fe       0.10300000      10.83360000       4.98934000      -0.79988200       1.03958000       0.82376600      -0.92383837       1.56421845       0.66099477
B        9.83138000       1.34479000       5.59342000       2.73003300      -1.60069300       1.71860100       2.42465431      -0.05023836       2.13402872
Si       8.95511000       2.30296000       4.33786000      -0.13907800       0.36771900       0.11506400      -0.13869124       0.30265393      -0.40061344
Si       3.99539000      10.22212000       8.61506000      -0.05248500      -0.48071600       0.18941400       0.33120243      -1.39579695      -0.58826161
Si       2.69021000       5.15166000      10.73011000       1.27722300       0.17680000       0.10453800       2.02546988       0.22505859      -0.46017172
Si       5.75937000       5.49395000      10.03068000      -2.14772600       0.59341400      -0.06866800      -2.55446786       0.60924788      -0.93706063
10
Lattice="9.0 0.0 0.0 0.0 9.0 0.0 0.0 0.0 9.0" Properties=species:S:1:pos:R:3:REF_forces:R:3:MACE_forces:R:3 config_type=Fe5B1Si4 REF_energy=-45.52219027 MACE_energy=-48.75020810405788 pbc="T T T"
Fe       5.95652000       4.23215000       1.06155000      -0.98767900      -0.50029400      -0.25142400      -0.57641992      -0.50335765      -0.98542883
Fe       5.13270000       1.30654000       4.87525000      -1.02972800       1.07694500      -1.04271400      -1.15375549       1.25864104      -1.01170275
Fe       0.86010000       2.84042000       4.86982000       1.78090900      -0.14036100      -0.68290200       1.39430834       0.04763733      -0.41424254
Fe       4.80846000       2.20734000       0.33653000      -0.70934400       1.79820400       0.47599400      -0.69333231       1.29747366      -0.01090243
Fe       4.84818000       3.73073000       2.87016000      -1.11599800      -1.47444400      -2.61602900      -0.97038080      -0.55814866      -2.54183115
B        3.56051000       3.01373000       4.13091000      -3.27582500      -2.90917300      -1.74282900      -2.45870990      -2.72889100      -1.07152613
Si       3.41138000       1.28778000       2.26512000       0.95707700       2.37405100       0.97860500       1.04450306       1.85273737       0.67821571
Si       5.16668000       2.63723000       6.68984000       0.07413900      -1.78642600       3.36318600       0.03279924      -1.47752441       3.45406106
Si       3.08125000       3.86721000       0.97989000       1.93930500      -1.04831500       0.87154200       1.95027974      -0.91868842       0.94070439
Si       4.99984000       3.77363000       4.95280000       2.36714300       2.60981200       0.64657100       1.43070804       1.73012074       0.96265267
10
Lattice="11.0 0.0 0.0 0.0 11.0 0.0 0.0 0.0 11.0" Properties=species:S:1:pos:R:3:REF_forces:R:3:MACE_forces:R:3 config_type=Fe5B1Si4 REF_energy=-40.7418507 MACE_energy=-39.61957349375014 pbc="T T T"
Fe       5.85212000       3.50546000       5.08734000       2.15677100      -0.79414500      -0.20894700       1.14733910      -0.24157550       0.04511082
Fe       4.00684000       5.71103000       1.22208000       0.17321900       0.19260900       1.30384500       0.20057975       0.46853512       1.82143994
Fe       8.00148000       8.34774000      10.98030000      -0.08363800      -0.04550400       0.02901100      -0.00000000      -0.00000000      -0.00000000
Fe       7.35073000       2.40140000       6.64128000       0.77906300       1.12479900      -0.71056100       1.56471431       1.46704415      -1.03414791
Fe      10.15241000       4.26124000       5.16236000      -1.21868700      -1.07976300       1.03424500      -1.95053486      -1.40398457       1.17982522
B        7.50939000       3.71850000       4.30627000       0.81775400       0.01191000       1.18846500       0.98244394      -0.20330137       1.75846224
Si       0.88259000       3.63568000       4.13155000       0.18457900       0.08807600       0.63549900       0.98604026       0.27884036       0.38910139
Si       4.29968000       6.34926000       4.01086000      -0.04470200      -1.65685100      -0.27530200      -0.17309231      -2.20178084      -0.87807651
Si       3.89182000       4.30839000       5.36988000      -1.81091900       1.59107900      -0.75492800      -1.28486979       1.35271049      -1.14879603
Si       9.83466000       2.97427000       7.53103000      -0.95344000       0.56779200      -2.24132700      -1.47262039       0.48351216      -2.13291916
10
Lattice="9.0 0.0 0.0 0.0 9.0 0.0 0.0 0.0 9.0" Properties=species:S:1:pos:R:3:REF_forces:R:3:MACE_forces:R:3 config_type=Fe5B1Si4 REF_energy=-42.65563223 MACE_energy=-47.899523930562275 pbc="T T T"
Fe       5.47398000       6.28103000       3.23251000       0.28355300       0.05833700       0.13117200      -0.46411708      -0.44082776      -0.58466824
Fe       3.48819000       2.94480000       4.89866000      -0.87509200      -0.04370600       2.15230300      -0.84804442       0.42951676       0.58555061
Fe       8.33854000       1.27421000       2.74786000      -0.46364400       1.92715600       1.33564000      -0.61571245       1.52925797       1.45039374
Fe       6.99962000       2.76087000       4.14267000      -0.44746500       1.63766400       1.88762100      -0.85103484       1.17245513       2.05186695
Fe       1.77962000       3.26723000       3.35280000      -0.52218800      -0.67489800       0.43259300       0.44511906      -0.52370636       0.56690997
B        4.62666000       4.86714000       2.55939000       0.26614600      -1.03752000       0.98811100      -0.23665351      -1.78762457       1.80821867
Si       4.18354000       2.39378000       2.99079000       0.43795500       1.50930000      -2.71878500      -0.00534792       1.49826303      -1.47671354
Si       8.55432000       3.88894000       3.61944000       3.24804800       2.01892900      -1.57919700       3.08223024       1.47856183      -1.68020844
Si       5.93563000       1.17498000       3.69373000      -1.91994400      -5.30800600      -1.48876300      -1.21163193      -3.36234522      -1.33814412
Si       0.45419000       2.68863000       5.46192000      -0.00736800      -0.08725600      -1.14069400       0.70519284       0.00644920      -1.38320560
10
Lattice="11.0 0.0 0.0 0.0 11.0 0.0 0.0 0.0 11.0" Properties=species:S:1:pos:R:3:REF_forces:R:3:MACE_forces:R:3 config_type=Fe5B1Si4 REF_energy=-34.53347477 MACE_energy=-37.47160817998388 pbc="T T T"
Fe      10.38446000       0.44273000       4.17388000      -0.78237800      -1.86098300       1.10984900      -0.84934864      -2.28000977       1.67383186
Fe       5.58579000       5.13476000       2.28318000      -1.35183300       0.99168200      -0.54319900      -1.02144091      -0.15912874       0.18876609
Fe      10.26893000       9.29847000       6.65501000       0.41344200       0.04548900      -2.04786900       0.34938672       0.09438429      -3.04172543
Fe       8.86095000       8.11141000       4.18070000       1.29133000       1.24914000       1.04926000       1.87715966       1.43434928       1.39426499
Fe       7.69214000       0.53975000       5.12514000       1.95509500      -0.60911200      -1.00813900       1.74046131      -0.36395685      -0.52347108
B        2.74748000       4.83778000       0.91630000       1.39196400      -0.12393600      -0.20196400       1.02861077       0.05973782       0.40282579
Si       6.81162000       1.90994000       1.53462000      -0.52184800       1.18261600      -0.41056100      -0.64774413       2.18018547      -0.59055462
Si       6.12115000       4.10888000       0.52255000       1.58173000      -1.75162600       1.46051100       1.29270337      -2.37289142       0.19313862
Si       0.91081000       9.09353000       4.86613000      -2.08485700       0.69467200       0.51855400      -3.11870149       1.11685519       0.49284403
Si       4.16380000       4.58033000      10.67633000      -1.89264600       0.18205800       0.07355800      -0.65108666       0.29047473      -0.18992026
10
Lattice="11.0 0.0 0.0 0.0 11.0 0.0 0.0 0.0 11.0" Properties=species:S:1:pos:R:3:REF_forces:R:3:MACE_forces:R:3 config_type=Fe5B1Si4 REF_energy=-31.88716106 MACE_energy=-40.217472080278654 pbc="T T T"
Fe       1.14116000       9.49468000      10.94139000       1.03161900      -0.44995100      -0.39877100       0.81826245      -1.05326420      -0.66209049
Fe       7.21367000       6.98307000       4.70883000      -2.94301400      -1.46688800       0.65014200      -2.30204125      -0.17671578       0.04815723
Fe       4.99485000       7.56523000       3.28858000       0.74465000      -0.23543700      -0.70888800       1.06500203      -0.55562037      -0.24324286
Fe       5.11075000       7.78078000       8.02245000      -0.73545200      -0.54142400       0.97332500      -1.05204824      -1.31408415       0.66699503
Fe       5.02580000       6.08327000       6.14288000       1.53107200       2.07986600      -0.44355300       1.22303042       1.90751386      -0.76888086
B        6.46739000       9.52531000       1.42776000      -0.83213000      -0.78314200       0.21534400      -1.40498230      -1.31084475       0.34757907
Si       3.36056000       5.78054000       9.88043000      -0.35408900       0.86759200       0.70337500      -0.11415322       1.87992668       0.46856864
Si       3.68875000       6.60974000       1.41965000       0.14004300       0.02695200      -1.00259500       0.61664336       0.40456503      -0.05537470
Si       3.95884000       8.08391000      10.56775000       0.21456400       0.93303900      -0.26874100      -0.15870714       0.20558164      -0.90243519
Si       1.56076000       7.66233000       9.57449000       1.20273800      -0.43060700       0.28036300       1.30899391       0.01294204       1.10072413
10
Lattice="11.0 0.0 0.0 0.0 11.0 0.0 0.0 0.0 11.0" Properties=species:S:1:pos:R:3:REF_forces:R:3:MACE_forces:R:3 config_type=Fe5B1Si4 REF_energy=-2.43842541 MACE_energy=-44.035256842873146 pbc="T T T"
Fe       8.11536000       3.96737000       6.09845000       2.52379000       3.39438000      -0.10855200       2.97222931       3.16994128      -0.47236302
Fe       4.00538000       4.00868000       8.30741000       1.03860200       0.49749300      -0.86210200       0.70971121      -0.23805566      -0.68541966
Fe       6.21734000       5.49238000       4.54674000      -1.90078500      -0.53233000       2.45773000      -3.22522908      -2.08235784       1.40670251
Fe       6.37295000       3.21617000       6.01003000      -4.31429000      -0.62928100      -0.35144300      -4.87370432      -0.17898617      -0.82285994
Fe       4.28107000       3.14598000       4.09228000       1.68301600       0.43320300       1.57416800       1.74693654       0.94554482       1.04785018
B        8.65122000       7.09833000       7.78974000      -0.81588400      -0.96711600      -2.45875700       0.02108108      -0.35392511      -0.58163471
Si       8.15838000       5.95236000       4.46257000       2.65955200       1.43037300       0.95638300       3.22734442       0.27049287       0.76337778
Si       7.04021000       6.67768000       6.73922000       0.09201500      -1.71899800      -1.45860000      -0.26213839      -0.93690624      -0.78881196
Si       9.92269000       6.79012000       6.33039000      -1.33422700      -1.06385500      -1.26044000      -0.44240440      -0.33021880      -0.09592740
Si       6.58826000       7.17809000       3.12641000       0.36821200      -0.84387000       1.51161300       0.12617363      -0.26552915       0.22908622
10
Lattice="6.0 0.0 0.0 0.0 6.0 0.0 0.0 0.0 6.0" Properties=species:S:1:pos:R:3:REF_forces:R:3:MACE_forces:R:3 config_type=Fe5B1Si4 REF_energy=-53.79328822 MACE_energy=-53.6753380365115 pbc="T T T"
Fe       0.50996000       2.31585000       5.10298000      -1.26599000      -0.50951400      -1.36914100      -1.29056379      -0.03363389      -1.08308866
Fe       4.41281000       4.39623000       3.51801000       2.05066400       2.95138500      -2.14682400       1.93975684       2.60693581      -2.72712395
Fe       1.31233000       5.37312000       2.96679000      -9.66985400       0.21848200       6.64889800      -6.37721143       0.33386439       4.98949220
Fe       5.30196000       5.42046000       5.41384000       1.20364700       0.82237100      -1.12375000       0.98680161       0.59688594      -0.82180925
Fe       2.97556000       4.92730000       5.11455000      -0.79718400       0.13310700       0.96147400      -0.86115476      -0.37274872       0.55434592
B        5.46078000       0.52907000       3.64926000      -0.06089300       0.25590500       0.66478200      -0.04355412       0.17547275       0.25554329
Si       2.81628000       5.37752000       2.00180000       6.85751800      -0.72904200      -5.53711500       4.39780726      -0.07594765      -3.24825630
Si       3.67557000       2.72706000       4.43876000      -0.82806600      -3.20205400       1.23328500      -0.86883641      -2.98709948       1.22222398
Si       4.50462000       4.23004000       1.13387000       0.98654700      -1.71437000      -0.38631400       1.08830962      -1.30069738      -0.34754527
Si       3.47649000       1.50306000       2.12993000       1.52361000       1.77373100       1.05470500       1.02864518       1.05696825       1.20621805
10
Lattice="12.0 0.0 0.0 0.0 12.0 0.0 0.0 0.0 12.0" Properties=species:S:1:pos:R:3:REF_forces:R:3:MACE_forces:R:3 config_type=Fe5B1Si4 REF_energy=-45.66921287 MACE_energy=-44.300705141562 pbc="T T T"
Fe       4.03767000       2.41086000       6.51410000       1.86803300       0.00585300       0.51063200       2.36024016      -0.56142805       0.50473067
Fe       4.79727000      11.75927000       9.09533000       0.54049700       0.45513700      -1.32376800       0.07455880       0.10507978      -0.23372450
Fe       5.80034000       0.20229000       7.24671000      -0.98588000       0.20802500       0.94137200      -0.93567648       0.97205512      -0.18498969