15
Lattice="5.664536 0.0 0.0 0.0 5.664536 0.0 0.0 0.0 5.664536" Properties=species:S:1:pos:R:3:REF_forces:R:3:MACE_forces:R:3 config_type=Fe13Si1B1 REF_energy=-108.19731369 MACE_energy=-106.95514561018996 pbc="T T T"
B        4.05901000       2.70568000       1.01305000      -1.63855300      -0.82904000       0.73367400      -1.75053361      -1.06357107       0.39681489
Si       2.82856000       0.10655000       3.62968000      -1.37485700       1.04288500       1.12851000      -1.40960333       1.29668455       1.55907226
Fe       2.58297000       1.18377000       1.20948000       0.93367000       0.14656100       0.38941200       1.50013981      -0.46181983      -0.10041960
Fe       0.38153000       0.68989000       3.08804000       0.88723900       3.84366500       0.15858400       0.37012408       3.56263578       0.73240773
Fe       1.54589000       2.38203000       4.72041000      -2.07199500      -0.40415400      -0.21731400      -2.23709094      -1.08833241      -0.37796350
Fe       0.00965000       3.55673000       0.57847000       1.87002200       0.46818400      -0.57360300       1.65041129       0.78984574      -0.35621764
Fe       4.86453000       2.71686000       2.75028000       1.57660800      -1.70083300       1.51404400       1.25050089      -1.48022643       1.68898359
Fe       4.62966000       0.98828000       5.06676000       0.07922500       1.31640700       1.29952100      -0.36403845       1.04196997       0.59841966
Fe       0.62475000       4.47163000       2.76945000       1.95380600      -3.21231900      -1.53544400       2.07335006      -2.85697929      -1.34171097
Fe       4.87774000       4.67993000       4.41653000      -0.64493200      -0.53503200       0.30435400      -0.22103507      -0.73538096      -0.00229560
Fe       3.59664000       2.87221000       4.83153000       0.23532500      -0.37357900      -1.60523300       0.52924132       0.33201475      -1.50905051
Fe       0.66156000       0.50203000       0.73880000      -0.79576700      -0.85035100      -0.29863700      -1.08010517      -0.67064713      -0.05395023
Fe       2.16986000       4.37529000       0.15492000      -0.00013300       0.94038800       0.69583500       0.44425404       0.92610489       0.45495044
Fe       3.84648000       4.71531000       2.05312000       0.75417200       0.77170900      -2.19861800       1.23792711       0.98792465      -2.24917641
Fe       2.60819000       2.98871000       2.55518000      -1.76382900      -0.62449100       0.20491400      -1.99354204      -0.58022320       0.56013590
15
Lattice="5.664536 0.0 0.0 0.0 5.664536 0.0 0.0 0.0 5.664536" Properties=species:S:1:pos:R:3:REF_forces:R:3:MACE_forces:R:3 config_type=Fe13Si1B1 REF_energy=-108.15566798 MACE_energy=-106.39497999732933 pbc="T T T"
B        4.14873000       2.95379000       1.06658000       0.16200100      -0.29917000      -0.39394100       0.33690025      -0.46868003      -0.99133538
Si       3.70970000       1.75376000       4.70342000       2.39954500       1.99334400       0.69658000       2.14196027       1.73979548       0.77277489
Fe       0.77141000       5.48369000       0.61772000       0.15863900      -0.70463600       0.73580300       0.28124500      -1.03361154       0.65158855
Fe       2.70222000       5.62328000       2.66112000      -2.84701800       1.11988600      -2.77526600      -2.65041519       1.45374618      -2.56214746
Fe       2.40590000       1.49012000       0.76033000       2.44811900      -1.09619800       2.05304000       2.26254957      -0.72021395       1.81637941
Fe       0.05981000       0.25678000       4.08407000      -0.72088300      -0.40435400      -1.12965000      -0.43102761      -0.03933855      -1.27468871
Fe       2.69016000       5.46683000       4.60121000      -0.81406600      -1.20768000       2.79556400      -0.64698809      -1.10589436       2.54460860
Fe       1.47386000       1.76151000       4.03878000       0.25632200       2.31886200      -0.70750300       0.20980295       2.11106090      -0.62105614
Fe       5.58209000       3.47185000       2.53703000       2.04828400       0.56513400      -0.37619200       2.51652559       0.58187682       0.35057745
Fe       2.39981000       3.74553000       0.37431000      -0.23425500       0.56240000       0.37900500      -0.36376672       0.22835360       0.40221947
Fe       4.35312000       1.55651000       2.64463000       0.99871600      -1.26274600      -2.03362100       0.98435643      -1.42666735      -1.72378528
Fe       4.71996000       4.32124000       4.97431000      -0.09930100      -2.16645100       0.36829600      -0.66562462      -2.54712144       0.06681218
Fe       4.35696000       5.05523000       1.41829000       0.42683500       0.31250100      -0.90165400       0.70788533       0.93392753      -0.71438355
Fe       0.47139000       2.05266000       0.60057000      -2.75315200       0.98470800      -0.10508100      -2.91212323       1.49045495      -0.12945213
Fe       3.41003000       3.62129000       2.91823000      -1.42978400      -0.71560000       1.39462200      -1.77127992      -1.19768825       1.41188810
15
Lattice="5.664536 0.0 0.0 0.0 5.664536 0.0 0.0 0.0 5.664536" Properties=species:S:1:pos:R:3:REF_forces:R:3:MACE_forces:R:3 config_type=Fe13Si1B1 REF_energy=-107.93807169 MACE_energy=-105.542522614776 pbc="T T T"
B        3.89991000       3.42526000       0.45422000       0.11547000      -0.03553900       1.12451100       0.65734856      -0.23698244       2.00329509
Si       3.48762000       0.16630000       4.61337000       0.32574800       0.46308000      -0.01786500      -0.34012399       1.09628324       0.06687535
Fe       2.84778000       1.82037000       0.82228000      -0.98232500      -1.42221600      -1.89337000      -2.05618470      -1.38974163      -2.15276812
Fe       1.34857000       0.81784000       2.30075000      -0.53643500       0.46265000      -1.19653800      -0.37749906       0.64695846      -1.44968598
Fe       1.57642000       1.26355000       4.33118000       0.04619000       0.17232100       0.29400800       0.99137588       0.21293321       0.55766469
Fe       0.65713000       2.94926000       0.95396000      -1.72120200      -1.22782100       0.66296100      -1.73118844      -1.43050240       0.62273108
Fe       4.05988000       1.97076000       2.38888000       1.24013900      -1.25976700       1.55714700       1.67210589      -1.84849192       1.68428788
Fe       5.41523000       1.91313000       4.86891000      -2.57043500      -0.52568200      -0.40262900      -2.66812608      -0.07320308      -0.01445622
Fe       1.35795000       4.61467000       3.62292000      -1.17710100      -0.19986100       1.26666800      -1.33324341       0.15738397       1.32309474
Fe       4.95776000       4.27854000       4.85033000       2.20080800       0.77958800      -0.24901600       2.52005814       0.10206933      -0.63693778
Fe       2.90817000       3.15860000       4.25698000      -0.87756600      -0.39846100       1.25184100      -0.55306453      -0.95990867       0.98478979
Fe       4.97903000       5.64594000       1.36431000      -0.69131800      -0.04726100      -0.44322300      -0.62582362       0.18447481      -0.49980269
Fe       1.21860000       5.04312000       0.28941000      -0.01329800       1.97019200      -1.42146800      -0.04543582       2.16709623      -1.71717507
Fe       4.19049000       3.99341000       2.69223000       2.99720200       1.59092800      -0.45710200       2.47784396       1.99465368      -0.52499921
Fe       2.24232000       4.14646000       1.80095000       1.64412400      -0.32215200      -0.07592500       1.41195721      -0.62302280      -0.24691355
15
Lattice="5.664536 0.0 0.0 0.0 5.664536 0.0 0.0 0.0 5.664536" Properties=species:S:1:pos:R:3:REF_forces:R:3:MACE_forces:R:3 config_type=Fe13Si1B1 REF_energy=-111.97852358 MACE_energy=-110.18838484732925 pbc="T T T"
B        0.06916000       5.66432000       5.18689000       0.12008200      -0.64043800       0.01360000       0.28138164      -1.18304810       0.17647245
Si       0.02740000       2.72248000       2.59682000      -0.95092500       0.36379500       0.29566700      -0.76850023       0.44108507       0.38830495
Fe       0.14116000       5.54768000       2.85133000       0.08282300      -0.00674100       0.52027800      -0.34701234       0.22756142       0.22788239
Fe       5.56722000       2.97052000       5.53670000      -0.67309900       0.24460700       0.18564600       0.10956854       0.29282946       0.14086640
Fe       2.56501000       0.00405000       5.40440000       0.68434000      -0.27592000       0.60718700       0.54778033      -0.28319188       0.67115389
Fe       2.97079000       2.77487000       5.60913000       0.61990200      -0.30745300       0.59180600      -0.14012733      -0.12386908       0.05278012
Fe       3.14055000       2.58779000       2.39876000      -0.26535600       0.46856000       0.15364600      -0.57697791       0.23115797       0.39910352
Fe       1.27023000       1.29362000       1.29220000       0.59662900      -0.36144800      -0.82067800       0.18723406      -0.44136653      -0.81447568
Fe       1.26884000       1.40412000       4.24821000      -0.00500300       0.79776500      -0.57479700       0.19314588       1.27730016      -0.57915987
Fe       1.43809000       4.26211000       1.36341000       0.07769500      -0.05884300      -0.22592600       0.19131662      -0.01038689      -0.18808824
Fe       1.52070000       4.14480000       4.13170000      -0.18321100      -0.27105400      -0.71528600      -0.18281046      -0.67104101      -0.53599911
Fe       4.46936000       1.09579000       0.98330000      -0.11971100       0.01004100       0.24750400       0.20956085       0.02525919       0.02694056
Fe       4.16783000       1.22547000       4.11325000       0.42899800      -0.08684700      -0.08842400       0.44354652      -0.14379316       0.13880855
Fe       4.22673000       4.46813000       1.30140000       0.09689500      -0.37725000      -0.41990000       0.11751133      -0.09404512      -0.19904669
Fe       4.20815000       4.21553000       4.01300000      -0.51005900       0.50122500       0.22967700      -0.26561751       0.45554850       0.09445678
15
Lattice="5.664536 0.0 0.0 0.0 5.664536 0.0 0.0 0.0 5.664536" Properties=species:S:1:pos:R:3:REF_forces:R:3:MACE_forces:R:3 config_type=Fe13Si1B1 REF_energy=-111.93959828 MACE_energy=-110.01812363735223 pbc="T T T"
B        0.52210000       0.05440000       5.04153000      -0.83789800      -0.96014800      -0.42271900      -0.51867852      -0.76063652      -0.87706619
Si       5.59498000       2.75302000       2.63746000      -0.41285400      -0.16722200       0.32382300      -0.17594506      -0.32419540       0.11170210
Fe       0.17766000       0.05624000       2.77011000      -0.22089500       0.44737300       1.17937900      -0.36742631      -0.02309885       1.02725487
Fe       5.59682000       2.78032000       5.61495000      -0.22239300       0.41310500      -0.03657000      -0.34577522       0.38743305      -0.47717344
Fe       2.71989000       5.37982000       5.43745000       0.17724800       0.17436200       0.47840000      -0.31625971       1.11253207       0.27146147
Fe       2.70157000       2.72483000       5.65192000       0.89303700       0.73165300       0.81071700       0.63870884       0.38281358       0.62497219
Fe       2.97278000       2.68063000       2.60608000       0.64664100       0.39382500      -0.89779500       0.75072550       0.60740478      -0.90580433
Fe       1.04462000       1.15381000       0.98518000       0.85892600      -0.28038300       0.02628300       1.02046431       0.08901787       0.53531488
Fe       1.65813000       1.50296000       3.98982000      -0.38663100      -0.26210300      -0.11433700      -0.40639976      -0.26023906       0.14811253
Fe       1.30631000       4.30849000       1.24352000      -0.41412900       0.11159100       0.24697100      -0.31214880      -0.11446928       0.25467574
Fe       1.58576000       4.06734000       3.99489000      -1.17533100      -0.00634600      -0.85725300      -0.87762158      -0.18668562      -0.76284187
Fe       4.12820000       1.13618000       1.10587000       0.62554700       0.31979100       0.22031500       0.39013204       0.18498740       0.30806445
Fe       4.25787000       1.24949000       4.17529000      -0.08913900      -0.07677300       0.23295600       0.13625634       0.00504965       0.24207925
Fe       4.35495000       4.45297000       1.34581000      -0.13361000      -0.53467800      -0.51744000      -0.21869273      -0.67052852       0.02092064
Fe       4.41108000       4.43949000       4.32316000       0.69148200      -0.30404700      -0.67272800       0.60266067      -0.42938516      -0.52167231
15
Lattice="5.664536 0.0 0.0 0.0 5.664536 0.0 0.0 0.0 5.664536" Properties=species:S:1:pos:R:3:REF_forces:R:3:MACE_forces:R:3 config_type=Fe13Si1B1 REF_energy=-111.86184603 MACE_energy=-108.6254416007286 pbc="T T T"
B        1.50863000       1.78767000       4.90152000      -0.44122900      -0.13378600       0.30200900       0.05946654      -0.20385073       0.23065694
Si       4.79549000       2.24346000       2.10133000      -2.02834800      -2.06166200      -2.37230900      -2.08797852      -1.71571180      -2.05489757
Fe       3.20380000       0.75276000       3.12970000      -0.26094900      -0.46491400       0.88121400       0.23172545      -0.07399828       1.19307223
Fe       2.86828000       3.52346000       0.83472000       0.63525800      -0.40693500      -0.10677300       0.39609261      -0.88037389      -0.21903080
Fe       0.30208000       0.41203000       3.59178000       0.43152100       1.99959300       0.71104900       0.60199373       1.95991273       0.26488455
Fe       4.64149000       4.82814000       4.64319000      -2.32204000      -0.32641000       1.26424000      -2.62137626      -0.31371215       1.27917635
Fe       1.38623000       5.04883000       1.95913000       0.13404600      -0.76597900       0.26900800       0.47407127      -1.01299486       0.70471521
Fe       0.01651000       0.69762000       0.56316000       0.43357300       0.50429600      -0.59615700       0.14140085       0.43710405      -0.43858383
Fe       1.71843000       1.81951000       1.96274000      -0.50569400       0.44278300      -1.08150200      -0.84290771       0.65685945      -0.94219421
Fe       2.49328000       3.31853000       3.75571000       0.60663900       0.53722000       0.22889400       0.41759482       0.25221028       0.30885306
Fe       0.35204000       3.39611000       0.17394000       0.28417100      -0.58935200       0.45847800       0.30462907      -0.67133425       0.42337933
Fe       0.11270000       3.44811000       3.40342000       2.52442400       0.78461300       1.86263000       2.56811418       0.92537803       1.75140763
Fe       4.37430000       4.86511000       1.96411000       0.02203300      -0.44143500      -0.21812100       0.40031189      -0.39532497      -0.17068226
Fe       1.91304000       5.29856000       5.45252000       0.85584700       1.12077600      -1.36953800       0.87523550       0.92025059      -1.93756915
Fe       3.73798000       1.56980000       5.38787000      -0.36925300      -0.19880800      -0.23312100      -0.91837344       0.11558579      -0.39318748
15
Lattice="5.664536 0.0 0.0 0.0 5.664536 0.0 0.0 0.0 5.664536" Properties=species:S:1:pos:R:3:REF_forces:R:3:MACE_forces:R:3 config_type=Fe13Si1B1 REF_energy=-121.96103282 MACE_energy=-108.19537581200241 pbc="T T T"
B        1.89945000       0.62627000       3.85277000      -2.50069800       2.16966800      -1.53918900      -3.14873070       2.83166812      -0.84636365
Si       0.20120000       2.04269000       2.64503000       1.02931600      -0.66199100      -2.72694900       1.32430429       0.13731286      -1.97356309
Fe       2.66066000       5.42797000       2.26357000       0.53979700      -0.03646200      -1.31830900       0.16683393      -0.75659868      -1.13962010
Fe       2.90276000       2.67008000       2.15492000      -1.83815700      -0.38139400      -2.84113500      -2.31915793       0.32819510      -2.15126461
Fe       3.76617000       1.41579000       3.61058000       1.59818700      -1.99316500       0.96094000       1.47556875      -0.96842967       1.26056638
Fe       4.35629000       3.78643000       3.20548000      -0.08184500       1.05317100       0.76552100      -0.29522536       0.64463596       0.87497910
Fe       4.47628000       4.06991000       0.64852000      -0.83953300      -0.22453300       0.86736600      -0.81489768      -0.31973869       0.30186801
Fe       4.19523000       1.12987000       0.84517000       0.20926900       0.78044000      -1.95195400       0.05672452       0.18132049      -0.73956232
Fe       1.20944000       0.98558000       0.54562000       0.36331500       0.64694800       1.15320100       0.47713151       0.44600838       0.15977267
Fe       2.93679000       5.24715000       4.85612000       1.78737200      -1.05335100       3.04321700       1.82023054      -1.85821045       2.33877695
Fe       2.46429000       3.02068000       4.78866000      -0.08418600      -0.93215200       0.71303400      -0.35915934      -0.76880094       0.02811965
Fe       5.64539000       2.77685000       4.69631000       0.33002600      -0.76378800       3.33994500       0.66240932      -0.04571850       2.27780146
Fe       1.14045000       3.92385000       0.99225000      -0.27335200       0.02348800       0.25089500       0.12681345       0.00864510       0.05465300
Fe       0.17432000       5.38924000       4.59788000      -0.87103600      -0.20642700       0.99417600      -0.31279750      -0.56938664       0.49783875
Fe       5.41134000       5.44443000       2.36685000       0.63152700       1.57954900      -1.71076000       1.13995221       0.70909755      -0.94400220
15
Lattice="5.664536 0.0 0.0 0.0 5.664536 0.0 0.0 0.0 5.664536" Properties=species:S:1:pos:R:3:REF_forces:R:3:MACE_forces:R:3 config_type=Fe13Si1B1 REF_energy=-109.57699008 MACE_energy=-107.78805367714351 pbc="T T T"
B        1.60964000       1.20953000       3.30762000      -0.01479600      -0.54483200       0.36412700       0.09243732      -0.35314832       0.27172457
Si       1.95419000       3.78303000       0.40477000       2.58923000       0.78612200      -1.61162900       2.47618691       0.91156895      -1.44789835
Fe       3.57229000       4.89724000       1.78218000      -0.69680300       0.94883800       2.04020100      -0.95464988       0.91025574       1.65488765
Fe       3.21513000       2.00319000       1.86162000       1.30615200      -1.04311700      -1.34636300       1.06219777      -1.27088570      -1.42631170
Fe       5.12136000       1.05340000       3.05836000       0.48907600      -0.57242700       0.35981000       0.42833622      -0.83132529       0.40637226
Fe       5.33303000       3.41064000       3.19935000      -1.19050900       0.64225800       0.16946300      -0.55538008       0.84849207       0.03502268
Fe       4.69645000       3.56410000       0.59057000       0.42357200      -2.45414500       1.39631500       0.54906027      -2.91350485       1.62409852
Fe       5.00397000       0.79608000       0.67759000       0.28054300       1.18762000       0.69531900      -0.31762474       0.34974747       0.43610948
Fe       1.02131000       2.39370000       1.67631000      -1.48205000      -1.99677700       1.89497700      -1.52525333      -1.47018356       1.51345656
Fe       4.49205000       4.87623000       4.87240000      -1.22864200       1.13873400      -2.26444700      -1.19917663       1.52001928      -2.92819940
Fe       3.40200000       1.47027000       4.46233000      -0.01871000      -0.18409200       0.67173000      -0.05192557      -0.95127081       1.20844463
Fe       0.59504000       2.14210000       5.17631000       0.66645200      -0.32293300      -3.32851400       0.66591287      -0.53989390      -2.58379076
Fe       1.14446000       5.07983000       4.43636000      -0.37358200       1.06798600      -0.87155500      -0.09145820       1.02688501      -1.03514031
Fe       2.52599000       3.18146000       3.48749000      -0.80261000       1.79870400       1.25168000      -0.76077703       2.54557494       1.46421670
Fe       0.91985000       5.18762000       1.86613000       0.05267700      -0.45193900       0.57888600       0.18211409       0.21766898       0.80700745
15
Lattice="5.664536 0.0 0.0 0.0 5.664536 0.0 0.0 0.0 5.664536" Properties=species:S:1:pos:R:3:REF_forces:R:3:MACE_forces:R:3 config_type=Fe13Si1B1 REF_energy=-111.24757227 MACE_energy=-108.51454071310901 pbc="T T T"
B        2.53656000       2.62317000       3.66583000      -0.11566700      -0.22978700       0.53017200      -0.27807909       0.21301271       0.30999342
Si       0.67483000       4.27329000       2.69225000       0.92910600       0.68145900       0.71622000       0.97536324       0.23868304       0.96840862
Fe       5.14560000       5.37767000       1.05479000      -0.04263700       0.54874800      -0.34508500      -0.23344910       0.34035130      -0.05603761
Fe       5.17725000       2.96978000       1.28337000      -0.94481700       0.15150400      -1.65556500      -1.12022657       0.40838661      -1.91619309
Fe       4.74580000       3.13666000       4.02461000      -0.25444200      -0.82574700      -0.11998600       0.03259150      -0.41738654      -0.34668220
Fe       0.33821000       1.51110000       2.57588000       1.22080500      -1.49602800       0.46012600       1.41420490      -1.26137327       0.98369463
Fe       3.09808000       4.41167000       2.55098000       1.58954700      -0.62340300      -0.59486000       1.80622820      -1.32093796      -0.41938359
Fe       4.73088000       0.16933000       4.32731000       1.21238200      -0.98254900      -0.92008400       1.22096886      -1.24247388      -0.88624374
Fe       3.65998000       1.37781000       0.06620000      -0.53114300       0.39644200       0.40797800      -0.52793692       1.26967495       0.02934838
Fe       3.63898000       1.27668000       2.55773000      -0.56432500       0.60761700      -1.09420600      -0.30598166       0.12562412      -0.72447980
Fe       3.30156000       4.03302000       5.51710000       0.66273100       0.68309200      -0.51252300       0.74302532       0.82617235      -1.11373229
Fe       2.04972000       2.93776000       1.03536000      -1.23701100      -0.98796000       1.66434700      -1.54655015      -1.21839049       1.94471967
Fe       2.16302000       5.60665000       3.99134000      -0.76618900       1.59088200       1.80303200      -0.85743015       1.48631245       1.67777091
Fe       0.95543000       1.84266000       4.95473000       0.27866900      -0.07002100       0.06014100      -0.12025549       0.01049066      -0.13257511
Fe       2.02568000       0.02468000       0.99960000      -1.43701000       0.55575000      -0.39970700      -1.20247290       0.54185397      -0.31860821
15
Lattice="5.664536 0.0 0.0 0.0 5.664536 0.0 0.0 0.0 5.664536" Properties=species:S:1:pos:R:3:REF_forces:R:3:MACE_forces:R:3 config_type=Fe13Si1B1 REF_energy=-108.79062395 MACE_energy=-107.87538028101118 pbc="T T T"
B        5.36400000       3.87568000       4.45905000       0.44648400       0.57032200       0.28604800       0.16813817       0.64443187      -0.05834379
Si       3.93387000       4.96403000       3.15711000      -4.30606800      -2.31482200      -2.68264300      -3.95582989      -2.28826730      -2.36086232
Fe       3.00216000       0.92096000       1.44117000      -0.76996800       0.42082500      -0.07835300      -0.62271859       0.16991221       0.10263867
Fe       1.34518000       5.62588000       2.73234000       2.41172500       0.19969700       0.20083700       2.88184234       0.40731476       0.24266373
Fe       0.44730000       2.09377000       4.98703000       1.17940300       0.68255400       0.66504100       1.57308372       0.58020514       0.42586623
Fe       0.30923000       3.79563000       2.39919000      -0.97580900      -1.20085800      -1.00234600      -0.55094988      -0.86726482      -0.77737271
Fe       0.18648000       1.06356000       1.31692000      -0.60348600       1.79501500       0.12312700       0.03303364       1.92424597       0.10547641
Fe       4.00265000       2.83038000       0.00570000       0.03088500      -0.70677300      -0.45368100      -0.16806387      -0.21766108      -0.28574367
Fe       5.37135000       0.30945000       4.05759000       2.43746500       1.21842000       2.05861100       1.46851833       1.49053410       2.13757071
Fe       2.32985000       3.12186000       1.52540000       0.40818200       0.55373600       0.67629300      -0.20189250       0.32925001       0.32576748
Fe       2.77320000       0.82160000       4.63749000       0.11143500       0.28254000       0.06072400       0.19670248       0.49148690       0.13831229
Fe       1.20304000       4.94889000       5.64649000       0.50304000      -0.54997900       0.60819900       0.12123466      -0.18525094       0.91442192
Fe       4.43330000       2.29054000       2.94368000      -1.10290800       0.42652200       0.72577900      -0.89487986       0.05966875       0.71457380
Fe       4.45738000       5.14386000       0.73674000       0.07827300      -0.88309100      -1.20270400       0.03732994      -1.89257429      -1.18482603
Fe       2.20236000       3.55424000       4.11335000       0.15134500      -0.49410700       0.01507000      -0.08554869      -0.64603128      -0.44014271
15
Lattice="5.664536 0.0 0.0 0.0 5.664536 0.0 0.0 0.0 5.664536" Properties=species:S:1:pos:R:3:REF_forces:R:3:MACE_forces:R:3 config_type=Fe13Si1B1 REF_energy=113.06017811 MACE_energy=-107.21121654541878 pbc="T T T"
B        1.39848000       0.19193000       0.61048000      -4.08297800       9.29302800       8.69098400       0.76993269       1.29736705       1.95351409
Si       2.92490000       2.16030000       2.14060000      -2.63496600       9.58037000      -0.49561900      -0.54417768      -1.02119448       1.58912855
Fe       2.86073000       2.70503000       5.26584000       4.32356800      10.20896900      -4.70309300       1.43803143      -1.56255338      -1.68712946
Fe       4.47802000       3.64784000       3.04881000      -8.75739200       8.66530300      12.20431400      -0.23078325       0.66037189       3.02442481
Fe       0.21576000       2.05514000       5.23160000     -18.24380600     -12.70694800      22.88283100       2.19675817       0.36950050      -0.57294154
Fe       0.44166000       2.36030000       2.32519000       9.91181000      13.04098500      -5.34425400       1.56007179      -0.44047279      -0.34997055
Fe       2.03954000       3.82953000       1.07367000      -9.51630500       5.90074000      24.04305300      -2.41087782       1.95908404       1.06083563
Fe       1.39295000       3.86962000       3.86875000       5.08493300      -5.56046400     -11.44166200       0.29743462      -0.63796300      -0.61161381
Fe       4.42805000       1.04262000       3.76613000      10.93879500       4.90624100      -3.25114800      -0.77165189       0.81881019       0.21680007
Fe       4.44753000       1.10914000       0.85325000      15.14670800      12.45203200      -7.47268500      -0.02704442      -0.76850433       0.22007850
Fe       3.06886000       5.29358000       5.21060000      31.03933500     -34.73641400       1.35306500       0.43279937       0.00227601      -0.66061786
Fe       4.80801000       3.61880000       0.94850000       7.81841300       1.86551900       0.92546600      -1.03903426       0.15227333      -1.26201686
Fe       0.75179000       0.26400000       3.08937000     -19.58866100       1.56533600      18.55626500       0.81241060      -0.47982666      -1.10290660
Fe       3.22665000       5.43114000       2.39493000      -7.30714900       7.24190400      -9.20324300      -1.40867636      -0.08748102      -0.56897115
Fe       0.02250000       5.10600000       5.27962000     -14.13230600     -31.71660300     -46.74427400      -1.07519299      -0.26168736      -1.24861383
15
Lattice="5.664536 0.0 0.0 0.0 5.664536 0.0 0.0 0.0 5.664536" Properties=species:S:1:pos:R:3:REF_forces:R:3:MACE_forces:R:3 config_type=Fe13Si1B1 REF_energy=-108.9830283 MACE_energy=-107.22023141009194 pbc="T T T"
B        0.13992000       2.30465000       0.77632000      -2.78401400      -0.82058500       0.46110900      -2.40605225      -1.46188462       0.96509263
Si       2.50353000       2.08237000       3.22653000       0.57446500       0.76610200      -0.17485000       0.21918675       0.85647195       0.03233951
Fe       1.09387000       3.72736000       2.17845000      -2.33299800      -0.65384800       2.12861500      -2.03472560      -0.70309932       2.00732623
Fe       3.95659000       1.68198000       5.11388000       0.36857700       0.27726400       0.90410800       0.39039775       0.06129287       1.20166248
Fe       3.24055000       0.05102000       1.45794000       1.85872300       1.81044900       1.22583000       2.11652180       1.67754928       1.34972710
Fe       1.11690000       0.40651000       2.78471000       0.23956900      -0.40930100      -0.23173800       0.01540633      -0.55491129       0.48902034
Fe       4.54933000       5.58716000       3.59286000      -0.31901000      -1.37235600       0.15251700       0.03488115      -1.35624116       0.23333629
Fe       2.02209000       2.17177000       0.81391000       2.28654300       0.57567400       0.95002900       2.33515518       0.82594978       1.06504785
Fe       2.49600000       4.37528000       3.91048000       1.01885200       0.91593900      -0.12431400       0.40934225       0.03168323       0.31140539
Fe       1.55562000       0.82810000       4.97050000      -1.41574600      -0.55119900      -1.41023600      -0.97742558       0.01668546      -1.39023737