1
Lattice="18.0 0.0 0.0 0.0 18.0 0.0 0.0 0.0 18.0" Properties=species:S:1:pos:R:3:REF_forces:R:3:MACE_forces:R:3 config_type=IsolatedAtom REF_energy=-3.283081 MACE_energy=-3.283081 pbc="T T T"
Fe       0.00000000       0.00000000       0.00000000       0.00000000       0.00000000       0.00000000      -0.00000000      -0.00000000      -0.00000000
1
Lattice="18.0 0.0 0.0 0.0 18.0 0.0 0.0 0.0 18.0" Properties=species:S:1:pos:R:3:REF_forces:R:3:MACE_forces:R:3 config_type=IsolatedAtom REF_energy=-0.81049333 MACE_energy=-0.81049333 pbc="T T T"
Si       0.00000000       0.00000000       0.00000000       0.00000000       0.00000000       0.00000000      -0.00000000      -0.00000000      -0.00000000
1
Lattice="18.0 0.0 0.0 0.0 18.0 0.0 0.0 0.0 18.0" Properties=species:S:1:pos:R:3:REF_forces:R:3:MACE_forces:R:3 config_type=IsolatedAtom REF_energy=-0.27559471 MACE_energy=-0.27559471 pbc="T T T"
B        0.00000000       0.00000000       0.00000000       0.00000000       0.00000000       0.00000000      -0.00000000      -0.00000000      -0.00000000
10
Lattice="9.0 0.0 0.0 0.0 9.0 0.0 0.0 0.0 9.0" Properties=species:S:1:pos:R:3:REF_forces:R:3:MACE_forces:R:3 config_type=Fe5B1Si4 REF_energy=-44.58554767 MACE_energy=-20.108784401711983 pbc="T T T"
Fe       3.50176000       8.99673000       3.09396000       0.95435000      -0.45803800       0.21474200       0.26178041      -0.45819734      -0.56689946
Fe       6.43801000       1.81225000       6.74888000       1.10970900      -0.66476800      -1.17007400       0.10691125      -0.13857514      -0.13752793
Fe       2.41193000       0.16613000       4.88253000       0.30913200      -0.89996000       0.17011800      -0.30498361      -0.14111821       0.65940555
Fe       8.52164000       3.22369000       0.34244000      -0.58790500      -0.47306700      -0.37861700      -0.00036954      -0.00025034      -0.00045993
Fe       5.66627000       2.92739000       3.87411000       4.77509600       2.80733600       2.40000400       0.19972888       0.91441232       0.26413376
B        5.18442000       1.13758000       3.40139000      -0.73957100       0.38065100       0.44676100       0.01653500      -0.21551828      -0.06425136
Si       7.10242000       1.59600000       3.97694000       2.28029300      -3.67324000       1.18634800       0.74227855      -0.66550029       0.20694690
Si       7.70822000       8.86280000       6.25904000      -0.73207200       1.84563600      -0.48266000      -0.09842406       0.16710892      -0.01226490
Si       3.91832000       3.09724000       3.40175000      -6.85054500      -1.08983400      -1.75602400      -0.79627438       0.05723630      -0.21558718
Si       3.63788000       6.78794000       4.49538000      -0.51848800       2.22528500      -0.63059800      -0.12718250       0.48040207      -0.13349545
10
Lattice="9.0 0.0 0.0 0.0 9.0 0.0 0.0 0.0 9.0" Properties=species:S:1:pos:R:3:REF_forces:R:3:MACE_forces:R:3 config_type=Fe5B1Si4 REF_energy=-48.18464377 MACE_energy=-20.80473112819772 pbc="T T T"
Fe       7.72908000       2.13801000       3.67226000      -0.72140700       1.38590200       0.18439100       0.07513696       0.35015367      -0.10461657
Fe       2.56544000       0.37534000       3.55582000       0.62580800       1.02854400      -0.21951900       0.45839676      -0.14614930      -0.53944584
Fe       5.84797000       2.87648000       5.04299000      -0.51992300      -1.03088200      -1.60504700      -0.13943334      -0.39409070       0.37052508
Fe       2.00259000       1.62931000       5.21757000       0.16709900       0.68697000      -1.46342200      -0.13368812       0.55291680       0.24630567
Fe       3.04146000       3.03902000       3.03634000       2.84541400      -0.11631900       1.57660000       0.59743569      -0.30224412       0.26098853
B        4.26036000       4.67435000       3.72342000       0.68065500      -0.16735200      -1.56590600       0.04512834       0.02537204       0.02957478
Si       6.34493000       4.18783000       3.43892000      -0.40775000      -0.06673100      -0.63978400       0.30681341       0.10368267      -0.41471210
Si       0.98363000       2.81182000       2.85911000      -2.44913300      -1.45501500       1.18349900      -0.96691560      -0.23483509       0.14544387
Si       4.97672000       0.35177000       3.88032000      -0.44220000       1.58116100       0.17191700      -0.24446865       0.06011974      -0.01173841
Si       4.49316000       6.21641000       2.06194000       0.22143900      -1.84627800       2.37727300       0.00159455      -0.01492571       0.01767498
10
Lattice="11.0 0.0 0.0 0.0 11.0 0.0 0.0 0.0 11.0" Properties=species:S:1:pos:R:3:REF_forces:R:3:MACE_forces:R:3 config_type=Fe5B1Si4 REF_energy=-11.58855075 MACE_energy=-20.464784933545445 pbc="T T T"
Fe       8.76471000       0.00946000       6.88513000      -0.22819700       0.12237200      -0.55543600      -0.00000000      -0.00000000      -0.00000000
Fe       2.63377000       1.33277000       3.45207000      -0.77576300      -0.08136400      -0.00027500       0.17697733       0.23269785      -0.09042500
Fe       9.34605000       7.55219000       3.04608000      -1.57311900      -1.03473800      -0.15487700      -0.06411324      -0.01443618       0.00089451
Fe       6.36389000       7.12183000       3.09324000       1.09683100       0.04242100      -0.12816300       0.06823060       0.00984644      -0.00107900
Fe       1.35866000       0.14865000       4.85122000       1.24564900       1.43265900      -2.24078300      -0.38549201      -0.13143453       0.02657153
B        0.74424000       4.87887000       2.93866000      -1.13359500      -0.78566000      -1.94809000      -0.01305916      -0.02529817      -0.06214123
Si       0.41110000       1.07145000       2.73658000       1.34178700       0.50456200      -0.25058800       0.35407583      -0.06722410       0.15602904
Si       0.39736000       3.73439000       0.50956000      -1.07905800      -1.52336200       2.18566600      -0.16044430      -0.10509848       0.09558133
Si       9.29283000       2.08457000       0.89045000       2.55214100       0.43757800       0.40081500       0.19107741       0.12088518      -0.01048029
Si       2.63700000       1.37373000       1.21644000      -1.44667700       0.88553200       2.69173100      -0.16725246      -0.01993802      -0.11495088
10
Lattice="11.0 0.0 0.0 0.0 11.0 0.0 0.0 0.0 11.0" Properties=species:S:1:pos:R:3:REF_forces:R:3:MACE_forces:R:3 config_type=Fe5B1Si4 REF_energy=-38.14997444 MACE_energy=-20.555295826065567 pbc="T T T"
Fe       0.55560000       8.19331000       7.06229000       0.60700700      -1.87987400       0.40247700       0.00886749       0.04507078      -0.01992377
Fe       0.49601000       2.54487000       7.78872000      -1.62914400       1.44061600       0.72816300      -0.42359808       0.21451048       0.12600855
Fe      10.07332000       3.88379000       9.42053000       1.49055100       0.96476400      -0.05327700       0.52175314       0.10850705       0.55469854
Fe       4.45932000       9.07691000       6.11289000       0.24660800      -0.52821700      -0.02378300       0.53999416      -0.63127391       0.02261756
Fe       9.54221000       0.53076000       0.28158000      -0.51209300       1.49842300      -0.39218500      -0.00473622       0.01054222      -0.00210742
B       10.69505000       5.70310000       8.40523000       0.71876200      -1.05034900      -0.26069900      -0.04262013      -0.06411127       0.01174566
Si       9.01619000       3.31434000       7.76349000       0.22101700      -0.39376100      -0.82483600      -0.09678491      -0.29769953      -0.65089548
Si       1.50005000       6.10934000       7.36041000      -1.47354600       0.22179200       0.82993100       0.02306709      -0.00819937      -0.00923815
Si       8.29851000       3.23195000      10.75936000       1.25238600      -0.70606300      -0.69191000       0.01637439      -0.00642460      -0.01119404
Si       3.13187000      10.62875000       6.05729000      -0.92154800       0.43266900       0.28612000      -0.54231693       0.62907814      -0.02171145
10
Lattice="11.0 0.0 0.0 0.0 11.0 0.0 0.0 0.0 11.0" Properties=species:S:1:pos:R:3:REF_forces:R:3:MACE_forces:R:3 config_type=Fe5B1Si4 REF_energy=-39.54850766 MACE_energy=-20.771993400883925 pbc="T T T"
Fe       7.32260000       2.25273000       9.60151000      -0.81068000       1.95759200       1.52424100      -0.01189260       0.21093818       0.18642153
Fe       5.30456000       3.18059000       0.62935000       3.59407800       0.60301100       0.45004200       1.01787313       0.34794914       0.17857895
Fe       5.70290000       5.32015000      10.23784000      -0.55638700      -0.41691100      -0.58631200      -0.25231338      -0.32380491       0.16251696
Fe       7.71673000       4.32859000       0.10409000      -1.51783000      -0.48364700      -0.94636500      -0.23880905      -0.30703614      -0.07984400
Fe       5.73415000       7.17747000       8.80515000      -0.19559000      -2.26799700       1.43769300      -0.00386112       0.12137556      -0.09567813
B        3.53335000       2.44513000       3.14396000       1.80602500       1.42469000       1.46529900       0.01533714      -0.01279075       0.03624576
Si       3.05847000       4.99331000       9.56994000       1.58460600       0.22347600       0.29443400       0.21497203      -0.02992064       0.10824816
Si       4.66874000       2.05360000       5.35076000      -1.23296500       0.33348000      -2.53096100      -0.02376429       0.00882439      -0.04667571
Si       3.35109000       3.37679000       0.23198000      -2.51854700       0.79060000      -0.76406600      -0.81613164       0.24295005       0.01328155
Si       4.02675000       4.41289000       2.41329000      -0.15270900      -2.16429400      -0.34400600       0.09858979      -0.25848487      -0.46309507
10
Lattice="11.0 0.0 0.0 0.0 11.0 0.0 0.0 0.0 11.0" Properties=species:S:1:pos:R:3:REF_forces:R:3:MACE_forces:R:3 config_type=Fe5B1Si4 REF_energy=-30.22050192 MACE_energy=-20.278728297679727 pbc="T T T"
Fe       7.51027000      10.11418000       2.18625000      -1.69790900       1.72973200      -1.19644900      -0.75354564       0.81006840      -0.09520665
Fe       6.52329000       1.24583000       0.98294000       2.87583100      -1.88416600       0.59355300       0.27128624      -0.16258701       0.20508082
Fe       8.50320000       0.98219000       3.23617000       1.14940800      -1.93965800      -1.01181700       0.23318977      -0.95259392      -0.00067223
Fe       8.81725000       8.60479000       1.96311000       1.70133000      -1.33465300       0.85149000       0.70459776      -0.72091043       0.49720341
Fe       9.16079000       2.26416000       1.64872000      -0.92180800       1.06168500      -1.01542500       0.21209234       0.53629080      -0.59044919
B        8.94441000       4.16897000      10.47399000      -1.12511400       0.54375800       0.63670800      -0.06312798       0.04291768      -0.06786227
Si      10.42398000       4.23416000       1.05026000      -1.52480000      -0.05410100      -1.01659500      -0.11332909      -0.18495883       0.06202980
Si       7.56198000       2.31002000       4.34386000      -1.29363800       1.80115300       0.97958300      -0.44917683       0.62812986       0.52491052
Si       8.52672000       8.61906000      10.86161000      -0.94443500       0.65405000      -0.31886100      -0.09715189       0.02436229      -0.57153346
Si       6.81456000       4.96874000       9.06450000       1.78113500      -0.57779900       1.49781200       0.05516534      -0.02071885       0.03649925
10
Lattice="11.0 0.0 0.0 0.0 11.0 0.0 0.0 0.0 11.0" Properties=species:S:1:pos:R:3:REF_forces:R:3:MACE_forces:R:3 config_type=Fe5B1Si4 REF_energy=-36.59236839 MACE_energy=-20.389004600485467 pbc="T T T"
Fe       3.58274000      10.79851000      10.73667000       0.11897900       0.22630100      -0.04976800      -0.00000000      -0.00000000      -0.00000000
Fe       1.22875000       2.49300000       7.21708000       2.26097500      -1.53625800       1.07649700       0.20524062      -0.10365683       0.13946214
Fe       0.83190000       3.93076000       3.48688000       1.35086000      -1.69250200       0.45489600       0.44499263      -0.60999698      -0.72951983
Fe       9.39560000       2.93064000       6.23859000      -2.27414300      -0.91782300      -0.86979000      -0.27176341      -0.18854482      -0.10119427
Fe       1.68648000       4.78764000       5.33563000      -2.42207400      -1.78775100      -0.34755700      -0.11766243       0.00609146       0.50846825
B        0.09146000       3.23421000       6.27209000       0.33374200       3.18943500      -3.08739300       0.23898165       0.35850118      -0.34130395
Si      10.14804000       1.29848000       4.70398000      -0.27194000       2.69997500       0.88966000      -0.01073774       0.15572847       0.12758423
Si       7.91960000       4.68330000       6.38399000       1.00571800      -0.89791700      -1.90531900      -0.03864613      -0.03641350      -0.20013079
Si       7.87407000       3.80560000       3.83659000       1.69436900       0.65761100       2.09344900       0.25493729       0.17722101       0.26032619
Si      10.18862000       4.97429000       4.13294000      -1.79648600       0.05892800       1.74532400      -0.70534248       0.24107002       0.33630803
10
Lattice="11.0 0.0 0.0 0.0 11.0 0.0 0.0 0.0 11.0" Properties=species:S:1:pos:R:3:REF_forces:R:3:MACE_forces:R:3 config_type=Fe5B1Si4 REF_energy=-37.97135349 MACE_energy=-20.344202225922103 pbc="T T T"
Fe       9.03194000       7.52207000       3.76953000      -0.41692800       1.06213800       1.36215600       0.10059229      -0.14890876      -0.18955121
Fe      10.13763000      10.16701000       4.97367000      -1.48414600      -0.40832500      -0.11078200       0.58102129      -0.16594965       0.08932196
Fe       4.72985000       7.86062000       7.54580000      -0.46341600      -0.84233600       0.25668000      -0.12211567      -0.27365024      -0.07424569
Fe       8.27206000       8.93115000       5.41966000       2.10203900       0.88604100      -1.49179500      -0.35281617       0.02880812       0.24742642
Fe       4.77388000       2.87329000       5.35297000      -0.27504900      -0.53922100      -0.84728100       0.02525638      -0.21351901      -0.30994562
B        4.61354000       3.86066000       6.74103000      -0.14362800      -0.14915200      -1.57005500      -0.00324591       0.15259042       0.30174775
Si       1.64433000       3.13639000       3.91354000       3.75707800      -0.87803400      -0.36408100       0.56020580      -0.15232571      -0.25250446
Si       3.74801000       5.66030000       6.94882000       0.45210300       0.36957600       0.68487900       0.09180816       0.33527740       0.07862956
Si       8.69515000       0.60160000       4.24738000      -0.18983800      -0.10747800       0.51028900      -0.32737600       0.28801605      -0.14688077
Si      10.87890000       3.62141000       4.73344000      -3.33821400       0.60679200       1.56999000      -0.55333016       0.14966138       0.25600206
10
Lattice="11.0 0.0 0.0 0.0 11.0 0.0 0.0 0.0 11.0" Properties=species:S:1:pos:R:3:REF_forces:R:3:MACE_forces:R:3 config_type=Fe5B1Si4 REF_energy=-19.85588119 MACE_energy=-19.994086011221874 pbc="T T T"
Fe       0.38446000       1.64586000       0.19247000      -0.31544900       0.99906300      -1.16531000       0.00299314      -0.00097164       0.00704478
Fe       4.73202000       7.12132000       7.31276000       0.31929800      -0.23556100       1.39875500      -0.00028631       0.00552982       0.00777721
Fe       0.36789000       2.73674000       6.71847000       0.18431700      -0.99436400      -3.07194200       0.47326711       0.19728588      -0.77504683
Fe      10.07665000       2.07009000       8.11408000      -1.05625300       0.13475800      -0.04421700      -0.63471249      -0.35485277       0.53766158
Fe       0.10300000      10.83360000       4.98934000      -0.79988200       1.03958000       0.82376600       0.12233549      -0.15230083      -0.06477156
B        9.83138000       1.34479000       5.59342000       2.73003300      -1.60069300       1.71860100       0.13909703       0.19083566       0.44932214
Si       8.95511000       2.30296000       4.33786000      -0.13907800       0.36771900       0.11506400      -0.10298029       0.12000370      -0.15421011
Si       3.99539000      10.22212000       8.61506000      -0.05248500      -0.48071600       0.18941400       0.00193379      -0.00813996      -0.00341843
Si       2.69021000       5.15166000      10.73011000       1.27722300       0.17680000       0.10453800      -0.00425951      -0.00047494       0.00097053
Si       5.75937000       5.49395000      10.03068000      -2.14772600       0.59341400      -0.06866800       0.00261204       0.00308508      -0.00532931
10
Lattice="9.0 0.0 0.0 0.0 9.0 0.0 0.0 0.0 9.0" Properties=species:S:1:pos:R:3:REF_forces:R:3:MACE_forces:R:3 config_type=Fe5B1Si4 REF_energy=-45.52219027 MACE_energy=-20.89122197268421 pbc="T T T"
Fe       5.95652000       4.23215000       1.06155000      -0.98767900      -0.50029400      -0.25142400       0.23050572       0.10281056      -0.52681475
Fe       5.13270000       1.30654000       4.87525000      -1.02972800       1.07694500      -1.04271400      -0.17844124       0.36979009      -0.21888340
Fe       0.86010000       2.84042000       4.86982000       1.78090900      -0.14036100      -0.68290200      -0.00234222      -0.00015286       0.00063235
Fe       4.80846000       2.20734000       0.33653000      -0.70934400       1.79820400       0.47599400      -0.34275316       0.20759363       0.19367623
Fe       4.84818000       3.73073000       2.87016000      -1.11599800      -1.47444400      -2.61602900      -0.38981292      -0.13135434      -0.75727206
B        3.56051000       3.01373000       4.13091000      -3.27582500      -2.90917300      -1.74282900      -0.23473301      -0.44158120       0.18443263
Si       3.41138000       1.28778000       2.26512000       0.95707700       2.37405100       0.97860500       0.20979079       0.28541969      -0.22844562
Si       5.16668000       2.63723000       6.68984000       0.07413900      -1.78642600       3.36318600      -0.00422107      -0.18525105       0.76198132
Si       3.08125000       3.86721000       0.97989000       1.93930500      -1.04831500       0.87154200       0.50749414      -0.27688413       0.18817121
Si       4.99984000       3.77363000       4.95280000       2.36714300       2.60981200       0.64657100       0.20451298       0.06960960       0.40252210
10
Lattice="11.0 0.0 0.0 0.0 11.0 0.0 0.0 0.0 11.0" Properties=species:S:1:pos:R:3:REF_forces:R:3:MACE_forces:R:3 config_type=Fe5B1Si4 REF_energy=-40.7418507 MACE_energy=-20.379388879589904 pbc="T T T"
Fe       5.85212000       3.50546000       5.08734000       2.15677100      -0.79414500      -0.20894700       0.17752034      -0.25762166       0.09728741
Fe       4.00684000       5.71103000       1.22208000       0.17321900       0.19260900       1.30384500       0.00863487       0.01881764       0.08223443
Fe       8.00148000       8.34774000      10.98030000      -0.08363800      -0.04550400       0.02901100      -0.00000000      -0.00000000      -0.00000000
Fe       7.35073000       2.40140000       6.64128000       0.77906300       1.12479900      -0.71056100       0.22487314       0.10161490      -0.00056231
Fe      10.15241000       4.26124000       5.16236000      -1.21868700      -1.07976300       1.03424500      -0.54957274       0.08423172       0.52957913
B        7.50939000       3.71850000       4.30627000       0.81775400       0.01191000       1.18846500       0.32736963       0.00152621      -0.09656248
Si       0.88259000       3.63568000       4.13155000       0.18457900       0.08807600       0.63549900       0.53356514      -0.19396827      -0.31972180
Si       4.29968000       6.34926000       4.01086000      -0.04470200      -1.65685100      -0.27530200      -0.04629151      -0.23313499       0.05849037
Si       3.89182000       4.30839000       5.36988000      -1.81091900       1.59107900      -0.75492800      -0.47395964       0.41982541      -0.06292048
Si       9.83466000       2.97427000       7.53103000      -0.95344000       0.56779200      -2.24132700      -0.20213923       0.05870904      -0.28782428
10
Lattice="9.0 0.0 0.0 0.0 9.0 0.0 0.0 0.0 9.0" Properties=species:S:1:pos:R:3:REF_forces:R:3:MACE_forces:R:3 config_type=Fe5B1Si4 REF_energy=-42.65563223 MACE_energy=-20.8000608111015 pbc="T T T"
Fe       5.47398000       6.28103000       3.23251000       0.28355300       0.05833700       0.13117200       0.18391560       0.30680776       0.14605809
Fe       3.48819000       2.94480000       4.89866000      -0.87509200      -0.04370600       2.15230300      -0.05931929       0.14637998       0.73595856
Fe       8.33854000       1.27421000       2.74786000      -0.46364400       1.92715600       1.33564000      -0.31435597       0.18851881       0.20346425
Fe       6.99962000       2.76087000       4.14267000      -0.44746500       1.63766400       1.88762100      -0.04280887       0.21835624       0.50062218
Fe       1.77962000       3.26723000       3.35280000      -0.52218800      -0.67489800       0.43259300      -0.04717826      -0.13827272       0.08616894
B        4.62666000       4.86714000       2.55939000       0.26614600      -1.03752000       0.98811100      -0.20223041      -0.37934403      -0.12538649
Si       4.18354000       2.39378000       2.99079000       0.43795500       1.50930000      -2.71878500      -0.14864003       0.04826161      -0.59351279
Si       8.55432000       3.88894000       3.61944000       3.24804800       2.01892900      -1.57919700       0.78335066       0.25897245      -0.19212374
Si       5.93563000       1.17498000       3.69373000      -1.91994400      -5.30800600      -1.48876300      -0.12664836      -0.79922622      -0.30430302
Si       0.45419000       2.68863000       5.46192000      -0.00736800      -0.08725600      -1.14069400      -0.02608506       0.14954613      -0.45694599
10
Lattice="11.0 0.0 0.0 0.0 11.0 0.0 0.0 0.0 11.0" Properties=species:S:1:pos:R:3:REF_forces:R:3:MACE_forces:R:3 config_type=Fe5B1Si4 REF_energy=-34.53347477 MACE_energy=-20.375247660323744 pbc="T T T"
Fe      10.38446000       0.44273000       4.17388000      -0.78237800      -1.86098300       1.10984900      -0.12625282      -0.05333586       0.07213752
Fe       5.58579000       5.13476000       2.28318000      -1.35183300       0.99168200      -0.54319900      -0.16258482       0.31029061       0.53914615
Fe      10.26893000       9.29847000       6.65501000       0.41344200       0.04548900      -2.04786900       0.15969782      -0.03927308      -0.21481863
Fe       8.86095000       8.11141000       4.18070000       1.29133000       1.24914000       1.04926000       0.01776586       0.01590272       0.02829374
Fe       7.69214000       0.53975000       5.12514000       1.95509500      -0.60911200      -1.00813900       0.16791741      -0.00759527      -0.05882520
B        2.74748000       4.83778000       0.91630000       1.39196400      -0.12393600      -0.20196400      -0.12250476       0.02046770       0.09638372
Si       6.81162000       1.90994000       1.53462000      -0.52184800       1.18261600      -0.41056100      -0.07561348       0.23922349      -0.10497141
Si       6.12115000       4.10888000       0.52255000       1.58173000      -1.75162600       1.46051100       0.46120556      -0.60432072      -0.34645410
Si       0.91081000       9.09353000       4.86613000      -2.08485700       0.69467200       0.51855400      -0.21913272       0.08430842       0.17319443
Si       4.16380000       4.58033000      10.67633000      -1.89264600       0.18205800       0.07355800      -0.10049806       0.03433199      -0.18408622
10
Lattice="11.0 0.0 0.0 0.0 11.0 0.0 0.0 0.0 11.0" Properties=species:S:1:pos:R:3:REF_forces:R:3:MACE_forces:R:3 config_type=Fe5B1Si4 REF_energy=-31.88716106 MACE_energy=-20.752908832904208 pbc="T T T"
Fe       1.14116000       9.49468000      10.94139000       1.03161900      -0.44995100      -0.39877100       0.00315777      -0.02594334      -0.02012300
Fe       7.21367000       6.98307000       4.70883000      -2.94301400      -1.46688800       0.65014200      -0.40209455      -0.02052887      -0.01501299
Fe       4.99485000       7.56523000       3.28858000       0.74465000      -0.23543700      -0.70888800       0.04499104      -0.18731860      -0.07495961
Fe       5.11075000       7.78078000       8.02245000      -0.73545200      -0.54142400       0.97332500      -0.06384424      -0.11090313      -0.01281114
Fe       5.02580000       6.08327000       6.14288000       1.53107200       2.07986600      -0.44355300       0.19341131       0.20274436       0.01806111
B        6.46739000       9.52531000       1.42776000      -0.83213000      -0.78314200       0.21534400       0.01438720       0.01714842      -0.01287212
Si       3.36056000       5.78054000       9.88043000      -0.35408900       0.86759200       0.70337500      -0.09093086       0.48142982       0.24653089
Si       3.68875000       6.60974000       1.41965000       0.14004300       0.02695200      -1.00259500       0.14604559       0.14087348      -0.10030343
Si       3.95884000       8.08391000      10.56775000       0.21456400       0.93303900      -0.26874100      -0.24969408      -0.37958680      -0.17783265
Si       1.56076000       7.66233000       9.57449000       1.20273800      -0.43060700       0.28036300       0.40457081      -0.11791534       0.14932293
10
Lattice="11.0 0.0 0.0 0.0 11.0 0.0 0.0 0.0 11.0" Properties=species:S:1:pos:R:3:REF_forces:R:3:MACE_forces:R:3 config_type=Fe5B1Si4 REF_energy=-2.43842541 MACE_energy=-20.344331056198566 pbc="T T T"
Fe       8.11536000       3.96737000       6.09845000       2.52379000       3.39438000      -0.10855200       0.74361640       0.73084036      -0.24170679
Fe       4.00538000       4.00868000       8.30741000       1.03860200       0.49749300      -0.86210200      -0.00491122       0.00164439       0.00476669
Fe       6.21734000       5.49238000       4.54674000      -1.90078500      -0.53233000       2.45773000      -0.72993847      -0.57143980       0.65931696
Fe       6.37295000       3.21617000       6.01003000      -4.31429000      -0.62928100      -0.35144300      -0.98927613      -0.14419344      -0.31575216
Fe       4.28107000       3.14598000       4.09228000       1.68301600       0.43320300       1.57416800       0.16409623       0.03387459       0.13401076
B        8.65122000       7.09833000       7.78974000      -0.81588400      -0.96711600      -2.45875700       0.01231867       0.03323428       0.13022275
Si       8.15838000       5.95236000       4.46257000       2.65955200       1.43037300       0.95638300       0.79229418       0.17254161       0.44174501
Si       7.04021000       6.67768000       6.73922000       0.09201500      -1.71899800      -1.45860000       0.00093323      -0.25275581      -0.54707405
Si       9.92269000       6.79012000       6.33039000      -1.33422700      -1.06385500      -1.26044000      -0.14069978      -0.09106313      -0.21757801
Si       6.58826000       7.17809000       3.12641000       0.36821200      -0.84387000       1.51161300       0.15156689       0.08731696      -0.04795117
10
Lattice="6.0 0.0 0.0 0.0 6.0 0.0 0.0 0.0 6.0" Properties=species:S:1:pos:R:3:REF_forces:R:3:MACE_forces:R:3 config_type=Fe5B1Si4 REF_energy=-53.79328822 MACE_energy=-21.204087406856402 pbc="T T T"
Fe       0.50996000       2.31585000       5.10298000      -1.26599000      -0.50951400      -1.36914100      -0.13315343      -0.17077392      -0.12886850
Fe       4.41281000       4.39623000       3.51801000       2.05066400       2.95138500      -2.14682400       0.55160707       0.75595144      -1.22125605
Fe       1.31233000       5.37312000       2.96679000      -9.66985400       0.21848200       6.64889800      -0.65627791       0.02490117       0.64891254
Fe       5.30196000       5.42046000       5.41384000       1.20364700       0.82237100      -1.12375000       0.19650266       0.14704928       0.14431948
Fe       2.97556000       4.92730000       5.11455000      -0.79718400       0.13310700       0.96147400      -0.29654836      -0.10293657       0.40633595
B        5.46078000       0.52907000       3.64926000      -0.06089300       0.25590500       0.66478200       0.03091439       0.00517713      -0.09598605
Si       2.81628000       5.37752000       2.00180000       6.85751800      -0.72904200      -5.53711500       0.61743427      -0.14539815      -0.27545675
Si       3.67557000       2.72706000       4.43876000      -0.82806600      -3.20205400       1.23328500      -0.30563912      -0.62868365       0.18569925
Si       4.50462000       4.23004000       1.13387000       0.98654700      -1.71437000      -0.38631400      -0.12998179      -0.11033473       0.05922536
Si       3.47649000       1.50306000       2.12993000       1.52361000       1.77373100       1.05470500       0.12514221       0.22504800       0.27707478
10
Lattice="12.0 0.0 0.0 0.0 12.0 0.0 0.0 0.0 12.0" Properties=species:S:1:pos:R:3:REF_forces:R:3:MACE_forces:R:3 config_type=Fe5B1Si4 REF_energy=-45.66921287 MACE_energy=-20.596228392326395 pbc="T T T"
Fe       4.03767000       2.41086000       6.51410000       1.86803300       0.00585300       0.51063200       0.76171211       0.06910022       0.05171472
Fe       4.79727000      11.75927000       9.09533000       0.54049700       0.45513700      -1.32376800      -0.32539476      -0.14308761       0.59885379
Fe       5.80034000       0.20229000       7.24671000      -0.98588000       0.20802500       0.94137200       0.24644940       0.24235225      -0.63214169