1
Lattice="18.0 0.0 0.0 0.0 18.0 0.0 0.0 0.0 18.0" Properties=species:S:1:pos:R:3:REF_forces:R:3:MACE_forces:R:3 config_type=IsolatedAtom REF_energy=-3.283081 MACE_energy=-10.815284766192661 pbc="T T T"
Fe       0.00000000       0.00000000       0.00000000       0.00000000       0.00000000       0.00000000      -0.00000000      -0.00000000      -0.00000000
1
Lattice="18.0 0.0 0.0 0.0 18.0 0.0 0.0 0.0 18.0" Properties=species:S:1:pos:R:3:REF_forces:R:3:MACE_forces:R:3 config_type=IsolatedAtom REF_energy=-0.81049333 MACE_energy=-10.43980040237323 pbc="T T T"
Si       0.00000000       0.00000000       0.00000000       0.00000000       0.00000000       0.00000000      -0.00000000      -0.00000000      -0.00000000
1
Lattice="18.0 0.0 0.0 0.0 18.0 0.0 0.0 0.0 18.0" Properties=species:S:1:pos:R:3:REF_forces:R:3:MACE_forces:R:3 config_type=IsolatedAtom REF_energy=-0.27559471 MACE_energy=-9.485755628291095 pbc="T T T"
B        0.00000000       0.00000000       0.00000000       0.00000000       0.00000000       0.00000000      -0.00000000      -0.00000000      -0.00000000
10
Lattice="9.0 0.0 0.0 0.0 9.0 0.0 0.0 0.0 9.0" Properties=species:S:1:pos:R:3:REF_forces:R:3:MACE_forces:R:3 config_type=Fe5B1Si4 REF_energy=-44.58554767 MACE_energy=-105.22689934260774 pbc="T T T"
Fe       3.50176000       8.99673000       3.09396000       0.95435000      -0.45803800       0.21474200       0.02424889      -0.11803320      -0.11487800
Fe       6.43801000       1.81225000       6.74888000       1.10970900      -0.66476800      -1.17007400       0.01784755      -0.02560227       0.00642927
Fe       2.41193000       0.16613000       4.88253000       0.30913200      -0.89996000       0.17011800      -0.07303352      -0.02140532       0.13025454
Fe       8.52164000       3.22369000       0.34244000      -0.58790500      -0.47306700      -0.37861700      -0.00177581      -0.00120317      -0.00221067
Fe       5.66627000       2.92739000       3.87411000       4.77509600       2.80733600       2.40000400       0.05229377       0.20573506       0.04971304
B        5.18442000       1.13758000       3.40139000      -0.73957100       0.38065100       0.44676100       0.03271310      -0.10328978      -0.03054182
Si       7.10242000       1.59600000       3.97694000       2.28029300      -3.67324000       1.18634800       0.11916582      -0.07604622      -0.01457090
Si       7.70822000       8.86280000       6.25904000      -0.73207200       1.84563600      -0.48266000      -0.00867299       0.00470104       0.03033842
Si       3.91832000       3.09724000       3.40175000      -6.85054500      -1.08983400      -1.75602400      -0.14345153       0.05841635      -0.03177052
Si       3.63788000       6.78794000       4.49538000      -0.51848800       2.22528500      -0.63059800      -0.01933528       0.07672752      -0.02276335
10
Lattice="9.0 0.0 0.0 0.0 9.0 0.0 0.0 0.0 9.0" Properties=species:S:1:pos:R:3:REF_forces:R:3:MACE_forces:R:3 config_type=Fe5B1Si4 REF_energy=-48.18464377 MACE_energy=-105.32655036047126 pbc="T T T"
Fe       7.72908000       2.13801000       3.67226000      -0.72140700       1.38590200       0.18439100       0.06719886       0.05186564      -0.04677109
Fe       2.56544000       0.37534000       3.55582000       0.62580800       1.02854400      -0.21951900       0.10466427      -0.05744656      -0.11395772
Fe       5.84797000       2.87648000       5.04299000      -0.51992300      -1.03088200      -1.60504700      -0.07017394       0.00138761       0.07415260
Fe       2.00259000       1.62931000       5.21757000       0.16709900       0.68697000      -1.46342200      -0.02424116       0.11369170       0.07247615
Fe       3.04146000       3.03902000       3.03634000       2.84541400      -0.11631900       1.57660000       0.05880121      -0.08288937       0.04413424
B        4.26036000       4.67435000       3.72342000       0.68065500      -0.16735200      -1.56590600       0.01914594      -0.01323552       0.05046916
Si       6.34493000       4.18783000       3.43892000      -0.40775000      -0.06673100      -0.63978400       0.07481474      -0.00695776      -0.05385311
Si       0.98363000       2.81182000       2.85911000      -2.44913300      -1.45501500       1.18349900      -0.16543406      -0.00783406       0.00599106
Si       4.97672000       0.35177000       3.88032000      -0.44220000       1.58116100       0.17191700      -0.05833898      -0.02071101      -0.00917019
Si       4.49316000       6.21641000       2.06194000       0.22143900      -1.84627800       2.37727300      -0.00643688       0.02212933      -0.02347111
10
Lattice="11.0 0.0 0.0 0.0 11.0 0.0 0.0 0.0 11.0" Properties=species:S:1:pos:R:3:REF_forces:R:3:MACE_forces:R:3 config_type=Fe5B1Si4 REF_energy=-11.58855075 MACE_energy=-105.32509358553897 pbc="T T T"
Fe       8.76471000       0.00946000       6.88513000      -0.22819700       0.12237200      -0.55543600      -0.00000000      -0.00000000      -0.00000000
Fe       2.63377000       1.33277000       3.45207000      -0.77576300      -0.08136400      -0.00027500       0.05936107       0.06905394      -0.06056832
Fe       9.34605000       7.55219000       3.04608000      -1.57311900      -1.03473800      -0.15487700      -0.00831640      -0.00262019       0.00009878
Fe       6.36389000       7.12183000       3.09324000       1.09683100       0.04242100      -0.12816300       0.00944420       0.00136293      -0.00014935
Fe       1.35866000       0.14865000       4.85122000       1.24564900       1.43265900      -2.24078300      -0.09785814      -0.05162024       0.03871323
B        0.74424000       4.87887000       2.93866000      -1.13359500      -0.78566000      -1.94809000       0.00018651       0.00558536       0.00927178
Si       0.41110000       1.07145000       2.73658000       1.34178700       0.50456200      -0.25058800       0.04720319      -0.02461191       0.07093668
Si       0.39736000       3.73439000       0.50956000      -1.07905800      -1.52336200       2.18566600       0.01049083      -0.00789706      -0.00611807
Si       9.29283000       2.08457000       0.89045000       2.55214100       0.43757800       0.40081500      -0.02442359       0.00341803      -0.01439256
Si       2.63700000       1.37373000       1.21644000      -1.44667700       0.88553200       2.69173100       0.00391233       0.00732913      -0.03779215
10
Lattice="11.0 0.0 0.0 0.0 11.0 0.0 0.0 0.0 11.0" Properties=species:S:1:pos:R:3:REF_forces:R:3:MACE_forces:R:3 config_type=Fe5B1Si4 REF_energy=-38.14997444 MACE_energy=-105.34731473692098 pbc="T T T"
Fe       0.55560000       8.19331000       7.06229000       0.60700700      -1.87987400       0.40247700       0.00455245       0.00469934      -0.00321543
Fe       0.49601000       2.54487000       7.78872000      -1.62914400       1.44061600       0.72816300      -0.05392518       0.01176142       0.00257523
Fe      10.07332000       3.88379000       9.42053000       1.49055100       0.96476400      -0.05327700       0.05459092       0.00607391       0.10686268
Fe       4.45932000       9.07691000       6.11289000       0.24660800      -0.52821700      -0.02378300       0.07892398      -0.09226527       0.00330574
Fe       9.54221000       0.53076000       0.28158000      -0.51209300       1.49842300      -0.39218500       0.01104298      -0.02348631       0.00440625
B       10.69505000       5.70310000       8.40523000       0.71876200      -1.05034900      -0.26069900      -0.02141740       0.01230254       0.00050619
Si       9.01619000       3.31434000       7.76349000       0.22101700      -0.39376100      -0.82483600       0.00037023      -0.03924668      -0.10500162
Si       1.50005000       6.10934000       7.36041000      -1.47354600       0.22179200       0.82993100       0.01521573       0.00412028      -0.00976849
Si       8.29851000       3.23195000      10.75936000       1.25238600      -0.70606300      -0.69191000      -0.00874750       0.02536564       0.00297898
Si       3.13187000      10.62875000       6.05729000      -0.92154800       0.43266900       0.28612000      -0.08060622       0.09067514      -0.00264953
10
Lattice="11.0 0.0 0.0 0.0 11.0 0.0 0.0 0.0 11.0" Properties=species:S:1:pos:R:3:REF_forces:R:3:MACE_forces:R:3 config_type=Fe5B1Si4 REF_energy=-39.54850766 MACE_energy=-105.34994923832069 pbc="T T T"
Fe       7.32260000       2.25273000       9.60151000      -0.81068000       1.95759200       1.52424100      -0.00364534       0.02627130       0.02324456
Fe       5.30456000       3.18059000       0.62935000       3.59407800       0.60301100       0.45004200       0.16990546       0.05804495       0.02050920
Fe       5.70290000       5.32015000      10.23784000      -0.55638700      -0.41691100      -0.58631200      -0.06752832      -0.05957405       0.03597800
Fe       7.71673000       4.32859000       0.10409000      -1.51783000      -0.48364700      -0.94636500       0.00249085      -0.06988156       0.01703605
Fe       5.73415000       7.17747000       8.80515000      -0.19559000      -2.26799700       1.43769300      -0.00032520       0.07259151      -0.05652793
B        3.53335000       2.44513000       3.14396000       1.80602500       1.42469000       1.46529900      -0.03024151      -0.01451465      -0.01727337
Si       3.05847000       4.99331000       9.56994000       1.58460600       0.22347600       0.29443400       0.03449109      -0.03508289       0.04638500
Si       4.66874000       2.05360000       5.35076000      -1.23296500       0.33348000      -2.53096100       0.01446846      -0.00527708       0.02836749
Si       3.35109000       3.37679000       0.23198000      -2.51854700       0.79060000      -0.76406600      -0.14108471       0.05480776      -0.00780913
Si       4.02675000       4.41289000       2.41329000      -0.15270900      -2.16429400      -0.34400600       0.02146922      -0.02738529      -0.08990987
10
Lattice="11.0 0.0 0.0 0.0 11.0 0.0 0.0 0.0 11.0" Properties=species:S:1:pos:R:3:REF_forces:R:3:MACE_forces:R:3 config_type=Fe5B1Si4 REF_energy=-30.22050192 MACE_energy=-105.25396013483504 pbc="T T T"
Fe       7.51027000      10.11418000       2.18625000      -1.69790900       1.72973200      -1.19644900      -0.15314373       0.08866436      -0.02518432
Fe       6.52329000       1.24583000       0.98294000       2.87583100      -1.88416600       0.59355300       0.05107918      -0.02222998       0.03570570
Fe       8.50320000       0.98219000       3.23617000       1.14940800      -1.93965800      -1.01181700       0.05283543      -0.12213984       0.05989777
Fe       8.81725000       8.60479000       1.96311000       1.70133000      -1.33465300       0.85149000       0.10768475      -0.10867403       0.07029680
Fe       9.16079000       2.26416000       1.64872000      -0.92180800       1.06168500      -1.01542500       0.05061215       0.11090911      -0.15320589
B        8.94441000       4.16897000      10.47399000      -1.12511400       0.54375800       0.63670800      -0.00222588      -0.00697954      -0.00513808
Si      10.42398000       4.23416000       1.05026000      -1.52480000      -0.05410100      -1.01659500      -0.00665839      -0.03179347       0.02492839
Si       7.56198000       2.31002000       4.34386000      -1.29363800       1.80115300       0.97958300      -0.08344343       0.09724916       0.10164051
Si       8.52672000       8.61906000      10.86161000      -0.94443500       0.65405000      -0.31886100      -0.00503074      -0.00941991      -0.10119275
Si       6.81456000       4.96874000       9.06450000       1.78113500      -0.57779900       1.49781200      -0.01170935       0.00441414      -0.00774812
10
Lattice="11.0 0.0 0.0 0.0 11.0 0.0 0.0 0.0 11.0" Properties=species:S:1:pos:R:3:REF_forces:R:3:MACE_forces:R:3 config_type=Fe5B1Si4 REF_energy=-36.59236839 MACE_energy=-105.24009212407181 pbc="T T T"
Fe       3.58274000      10.79851000      10.73667000       0.11897900       0.22630100      -0.04976800      -0.00000000      -0.00000000      -0.00000000
Fe       1.22875000       2.49300000       7.21708000       2.26097500      -1.53625800       1.07649700       0.10683214      -0.06255432       0.08296790
Fe       0.83190000       3.93076000       3.48688000       1.35086000      -1.69250200       0.45489600       0.04533012      -0.10727198      -0.16500308
Fe       9.39560000       2.93064000       6.23859000      -2.27414300      -0.91782300      -0.86979000      -0.15174220      -0.07508292       0.02007118
Fe       1.68648000       4.78764000       5.33563000      -2.42207400      -1.78775100      -0.34755700      -0.00265432       0.00783125       0.14177391
B        0.09146000       3.23421000       6.27209000       0.33374200       3.18943500      -3.08739300       0.10155424       0.15935334      -0.10261911
Si      10.14804000       1.29848000       4.70398000      -0.27194000       2.69997500       0.88966000      -0.01965634      -0.00061398       0.00763907
Si       7.91960000       4.68330000       6.38399000       1.00571800      -0.89791700      -1.90531900       0.00186781       0.00394625       0.00378309
Si       7.87407000       3.80560000       3.83659000       1.69436900       0.65761100       2.09344900       0.00682928       0.01076407      -0.02198952
Si      10.18862000       4.97429000       4.13294000      -1.79648600       0.05892800       1.74532400      -0.08836072       0.06362829       0.03337656
10
Lattice="11.0 0.0 0.0 0.0 11.0 0.0 0.0 0.0 11.0" Properties=species:S:1:pos:R:3:REF_forces:R:3:MACE_forces:R:3 config_type=Fe5B1Si4 REF_energy=-37.97135349 MACE_energy=-105.28346513513165 pbc="T T T"
Fe       9.03194000       7.52207000       3.76953000      -0.41692800       1.06213800       1.36215600       0.03598630      -0.07327076      -0.08317743
Fe      10.13763000      10.16701000       4.97367000      -1.48414600      -0.40832500      -0.11078200       0.14460303       0.02400438       0.00084680
Fe       4.72985000       7.86062000       7.54580000      -0.46341600      -0.84233600       0.25668000      -0.02085453      -0.04676397      -0.01268533
Fe       8.27206000       8.93115000       5.41966000       2.10203900       0.88604100      -1.49179500      -0.13851757      -0.01347700       0.11288818
Fe       4.77388000       2.87329000       5.35297000      -0.27504900      -0.53922100      -0.84728100       0.01920172      -0.10659625      -0.14498273
B        4.61354000       3.86066000       6.74103000      -0.14362800      -0.14915200      -1.57005500      -0.00730442       0.08228659       0.14015008
Si       1.64433000       3.13639000       3.91354000       3.75707800      -0.87803400      -0.36408100       0.08913813      -0.02464556      -0.04215458
Si       3.74801000       5.66030000       6.94882000       0.45210300       0.36957600       0.68487900       0.00977572       0.07100527       0.01789512
Si       8.69515000       0.60160000       4.24738000      -0.18983800      -0.10747800       0.51028900      -0.04258450       0.06203434      -0.03067167
Si      10.87890000       3.62141000       4.73344000      -3.33821400       0.60679200       1.56999000      -0.08944390       0.02542296       0.04189157
10
Lattice="11.0 0.0 0.0 0.0 11.0 0.0 0.0 0.0 11.0" Properties=species:S:1:pos:R:3:REF_forces:R:3:MACE_forces:R:3 config_type=Fe5B1Si4 REF_energy=-19.85588119 MACE_energy=-105.30919445082489 pbc="T T T"
Fe       0.38446000       1.64586000       0.19247000      -0.31544900       0.99906300      -1.16531000       0.00256638      -0.00083269       0.00603673
Fe       4.73202000       7.12132000       7.31276000       0.31929800      -0.23556100       1.39875500      -0.00268234       0.00339429      -0.00852885
Fe       0.36789000       2.73674000       6.71847000       0.18431700      -0.99436400      -3.07194200       0.06901234       0.02821926      -0.11903919
Fe      10.07665000       2.07009000       8.11408000      -1.05625300       0.13475800      -0.04421700      -0.10364311      -0.06556366       0.03697394
Fe       0.10300000      10.83360000       4.98934000      -0.79988200       1.03958000       0.82376600       0.04509899      -0.05868290      -0.01984369
B        9.83138000       1.34479000       5.59342000       2.73003300      -1.60069300       1.71860100       0.01166289       0.07230332       0.12351531
Si       8.95511000       2.30296000       4.33786000      -0.13907800       0.36771900       0.11506400      -0.02469749       0.02455667      -0.02764309
Si       3.99539000      10.22212000       8.61506000      -0.05248500      -0.48071600       0.18941400      -0.00032505       0.00136829       0.00057470
Si       2.69021000       5.15166000      10.73011000       1.27722300       0.17680000       0.10453800      -0.00035284      -0.00003893       0.00007970
Si       5.75937000       5.49395000      10.03068000      -2.14772600       0.59341400      -0.06866800       0.00336023      -0.00472365       0.00787445
10
Lattice="9.0 0.0 0.0 0.0 9.0 0.0 0.0 0.0 9.0" Properties=species:S:1:pos:R:3:REF_forces:R:3:MACE_forces:R:3 config_type=Fe5B1Si4 REF_energy=-45.52219027 MACE_energy=-105.31558538601676 pbc="T T T"
Fe       5.95652000       4.23215000       1.06155000      -0.98767900      -0.50029400      -0.25142400       0.10816565       0.07346336      -0.10832870
Fe       5.13270000       1.30654000       4.87525000      -1.02972800       1.07694500      -1.04271400      -0.02922105       0.07596376      -0.00910518
Fe       0.86010000       2.84042000       4.86982000       1.78090900      -0.14036100      -0.68290200       0.02250217       0.00144959      -0.00616609
Fe       4.80846000       2.20734000       0.33653000      -0.70934400       1.79820400       0.47599400      -0.08409350      -0.00782502       0.02548002
Fe       4.84818000       3.73073000       2.87016000      -1.11599800      -1.47444400      -2.61602900      -0.03909626       0.01495894      -0.11545767
B        3.56051000       3.01373000       4.13091000      -3.27582500      -2.90917300      -1.74282900      -0.07461782      -0.08211499       0.11430941
Si       3.41138000       1.28778000       2.26512000       0.95707700       2.37405100       0.97860500       0.01278625      -0.03924351      -0.07521521
Si       5.16668000       2.63723000       6.68984000       0.07413900      -1.78642600       3.36318600      -0.00621703      -0.02113775       0.09158671
Si       3.08125000       3.86721000       0.97989000       1.93930500      -1.04831500       0.87154200       0.05881705      -0.01092691       0.01591319
Si       4.99984000       3.77363000       4.95280000       2.36714300       2.60981200       0.64657100       0.03097453      -0.00458747       0.06698352
10
Lattice="11.0 0.0 0.0 0.0 11.0 0.0 0.0 0.0 11.0" Properties=species:S:1:pos:R:3:REF_forces:R:3:MACE_forces:R:3 config_type=Fe5B1Si4 REF_energy=-40.7418507 MACE_energy=-105.30162623845847 pbc="T T T"
Fe       5.85212000       3.50546000       5.08734000       2.15677100      -0.79414500      -0.20894700      -0.09931644      -0.02572480       0.02210466
Fe       4.00684000       5.71103000       1.22208000       0.17321900       0.19260900       1.30384500      -0.00072579      -0.00157913      -0.00692617
Fe       8.00148000       8.34774000      10.98030000      -0.08363800      -0.04550400       0.02901100      -0.00000000      -0.00000000      -0.00000000
Fe       7.35073000       2.40140000       6.64128000       0.77906300       1.12479900      -0.71056100       0.07297856       0.01062598       0.00011044
Fe      10.15241000       4.26124000       5.16236000      -1.21868700      -1.07976300       1.03424500      -0.09844312       0.00641904       0.07070485
B        7.50939000       3.71850000       4.30627000       0.81775400       0.01191000       1.18846500       0.15277631      -0.00425296      -0.01514390
Si       0.88259000       3.63568000       4.13155000       0.18457900       0.08807600       0.63549900       0.08287221      -0.02581832      -0.04226982
Si       4.29968000       6.34926000       4.01086000      -0.04470200      -1.65685100      -0.27530200      -0.00913909      -0.03771820       0.03386245
Si       3.89182000       4.30839000       5.36988000      -1.81091900       1.59107900      -0.75492800      -0.07057054       0.06989876      -0.02054691
Si       9.83466000       2.97427000       7.53103000      -0.95344000       0.56779200      -2.24132700      -0.03043210       0.00814963      -0.04189560
10
Lattice="9.0 0.0 0.0 0.0 9.0 0.0 0.0 0.0 9.0" Properties=species:S:1:pos:R:3:REF_forces:R:3:MACE_forces:R:3 config_type=Fe5B1Si4 REF_energy=-42.65563223 MACE_energy=-105.28415227866802 pbc="T T T"
Fe       5.47398000       6.28103000       3.23251000       0.28355300       0.05833700       0.13117200       0.08234468       0.13720933       0.06536970
Fe       3.48819000       2.94480000       4.89866000      -0.87509200      -0.04370600       2.15230300       0.05507943       0.01230334       0.16612079
Fe       8.33854000       1.27421000       2.74786000      -0.46364400       1.92715600       1.33564000      -0.03899613      -0.02438257      -0.01497957
Fe       6.99962000       2.76087000       4.14267000      -0.44746500       1.63766400       1.88762100      -0.01925353       0.07124284       0.11393251
Fe       1.77962000       3.26723000       3.35280000      -0.52218800      -0.67489800       0.43259300      -0.06097024      -0.01221976      -0.02333663
B        4.62666000       4.86714000       2.55939000       0.26614600      -1.03752000       0.98811100      -0.06384867      -0.09560978      -0.08368419
Si       4.18354000       2.39378000       2.99079000       0.43795500       1.50930000      -2.71878500      -0.02694417      -0.05501131      -0.07360898
Si       8.55432000       3.88894000       3.61944000       3.24804800       2.01892900      -1.57919700       0.13960481       0.02716746       0.00161438
Si       5.93563000       1.17498000       3.69373000      -1.91994400      -5.30800600      -1.48876300      -0.03993387      -0.10875449      -0.07017045
Si       0.45419000       2.68863000       5.46192000      -0.00736800      -0.08725600      -1.14069400      -0.02708230       0.04805494      -0.08125759
10
Lattice="11.0 0.0 0.0 0.0 11.0 0.0 0.0 0.0 11.0" Properties=species:S:1:pos:R:3:REF_forces:R:3:MACE_forces:R:3 config_type=Fe5B1Si4 REF_energy=-34.53347477 MACE_energy=-105.30153302299745 pbc="T T T"
Fe      10.38446000       0.44273000       4.17388000      -0.78237800      -1.86098300       1.10984900      -0.04370056       0.01292479       0.00322807
Fe       5.58579000       5.13476000       2.28318000      -1.35183300       0.99168200      -0.54319900       0.00632443       0.05047822       0.10897008
Fe      10.26893000       9.29847000       6.65501000       0.41344200       0.04548900      -2.04786900       0.02894071      -0.00876141      -0.02465475
Fe       8.86095000       8.11141000       4.18070000       1.29133000       1.24914000       1.04926000      -0.01369486      -0.00011861      -0.00368163
Fe       7.69214000       0.53975000       5.12514000       1.95509500      -0.60911200      -1.00813900       0.04009749      -0.00468394      -0.01306866
B        2.74748000       4.83778000       0.91630000       1.39196400      -0.12393600      -0.20196400      -0.03577016       0.00166033       0.00916554
Si       6.81162000       1.90994000       1.53462000      -0.52184800       1.18261600      -0.41056100      -0.01299088       0.04096745      -0.01763972
Si       6.12115000       4.10888000       0.52255000       1.58173000      -1.75162600       1.46051100       0.03232604      -0.08387062      -0.06123521
Si       0.91081000       9.09353000       4.86613000      -2.08485700       0.69467200       0.51855400      -0.01164954       0.00064970       0.03814939
Si       4.16380000       4.58033000      10.67633000      -1.89264600       0.18205800       0.07355800       0.01011734      -0.00924590      -0.03923311
10
Lattice="11.0 0.0 0.0 0.0 11.0 0.0 0.0 0.0 11.0" Properties=species:S:1:pos:R:3:REF_forces:R:3:MACE_forces:R:3 config_type=Fe5B1Si4 REF_energy=-31.88716106 MACE_energy=-105.32472267492035 pbc="T T T"
Fe       1.14116000       9.49468000      10.94139000       1.03161900      -0.44995100      -0.39877100      -0.01938898       0.00323326      -0.00265860
Fe       7.21367000       6.98307000       4.70883000      -2.94301400      -1.46688800       0.65014200      -0.08230033      -0.00582040       0.00005373
Fe       4.99485000       7.56523000       3.28858000       0.74465000      -0.23543700      -0.70888800       0.00595715      -0.03686468      -0.01137168
Fe       5.11075000       7.78078000       8.02245000      -0.73545200      -0.54142400       0.97332500       0.00570109       0.00967322      -0.00474480
Fe       5.02580000       6.08327000       6.14288000       1.53107200       2.07986600      -0.44355300       0.04090589       0.01398178      -0.01450935
B        6.46739000       9.52531000       1.42776000      -0.83213000      -0.78314200       0.21534400       0.00750580       0.01065652      -0.01124576
Si       3.36056000       5.78054000       9.88043000      -0.35408900       0.86759200       0.70337500      -0.00808542       0.04628251       0.01755297
Si       3.68875000       6.60974000       1.41965000       0.14004300       0.02695200      -1.00259500       0.03505168       0.05776894      -0.00097452
Si       3.95884000       8.08391000      10.56775000       0.21456400       0.93303900      -0.26874100      -0.00532942      -0.09779240       0.01672599
Si       1.56076000       7.66233000       9.57449000       1.20273800      -0.43060700       0.28036300       0.01998254      -0.00111874       0.01117201
10
Lattice="11.0 0.0 0.0 0.0 11.0 0.0 0.0 0.0 11.0" Properties=species:S:1:pos:R:3:REF_forces:R:3:MACE_forces:R:3 config_type=Fe5B1Si4 REF_energy=-2.43842541 MACE_energy=-105.22095524715996 pbc="T T T"
Fe       8.11536000       3.96737000       6.09845000       2.52379000       3.39438000      -0.10855200       0.10007120       0.08606110      -0.05396631
Fe       4.00538000       4.00868000       8.30741000       1.03860200       0.49749300      -0.86210200      -0.00374028       0.00125250       0.00362884
Fe       6.21734000       5.49238000       4.54674000      -1.90078500      -0.53233000       2.45773000      -0.09651469      -0.09242435       0.11453714
Fe       6.37295000       3.21617000       6.01003000      -4.31429000      -0.62928100      -0.35144300      -0.14604140      -0.00446171      -0.06727368
Fe       4.28107000       3.14598000       4.09228000       1.68301600       0.43320300       1.57416800       0.03172439       0.00082415       0.02920192
B        8.65122000       7.09833000       7.78974000      -0.81588400      -0.96711600      -2.45875700       0.00329435       0.00656787       0.02717294
Si       8.15838000       5.95236000       4.46257000       2.65955200       1.43037300       0.95638300       0.08237159       0.01607068       0.00134632
Si       7.04021000       6.67768000       6.73922000       0.09201500      -1.71899800      -1.45860000      -0.07084911      -0.01277730      -0.05337852
Si       9.92269000       6.79012000       6.33039000      -1.33422700      -1.06385500      -1.26044000       0.05577634       0.00659369      -0.01447118
Si       6.58826000       7.17809000       3.12641000       0.36821200      -0.84387000       1.51161300       0.04390760      -0.00770664       0.01320252
10
Lattice="6.0 0.0 0.0 0.0 6.0 0.0 0.0 0.0 6.0" Properties=species:S:1:pos:R:3:REF_forces:R:3:MACE_forces:R:3 config_type=Fe5B1Si4 REF_energy=-53.79328822 MACE_energy=-105.3844831444153 pbc="T T T"
Fe       0.50996000       2.31585000       5.10298000      -1.26599000      -0.50951400      -1.36914100      -0.01259265      -0.06026083      -0.03478820
Fe       4.41281000       4.39623000       3.51801000       2.05066400       2.95138500      -2.14682400       0.09707696       0.08938114      -0.28755473
Fe       1.31233000       5.37312000       2.96679000      -9.66985400       0.21848200       6.64889800      -0.10626046      -0.01220201       0.11115947
Fe       5.30196000       5.42046000       5.41384000       1.20364700       0.82237100      -1.12375000       0.10554757       0.05516165       0.12930490
Fe       2.97556000       4.92730000       5.11455000      -0.79718400       0.13310700       0.96147400      -0.16023418      -0.03285618       0.09500792
B        5.46078000       0.52907000       3.64926000      -0.06089300       0.25590500       0.66478200       0.03678345       0.03329772      -0.01002004
Si       2.81628000       5.37752000       2.00180000       6.85751800      -0.72904200      -5.53711500       0.15348172       0.00603801      -0.05780917
Si       3.67557000       2.72706000       4.43876000      -0.82806600      -3.20205400       1.23328500      -0.05661909      -0.08786249       0.03975512
Si       4.50462000       4.23004000       1.13387000       0.98654700      -1.71437000      -0.38631400      -0.05244585       0.02365702       0.01644913
Si       3.47649000       1.50306000       2.12993000       1.52361000       1.77373100       1.05470500      -0.00473748      -0.01435403      -0.00150439
10
Lattice="12.0 0.0 0.0 0.0 12.0 0.0 0.0 0.0 12.0" Properties=species:S:1:pos:R:3:REF_forces:R:3:MACE_forces:R:3 config_type=Fe5B1Si4 REF_energy=-45.66921287 MACE_energy=-105.25702716706199 pbc="T T T"
Fe       4.03767000       2.41086000       6.51410000       1.86803300       0.00585300       0.51063200       0.13611816       0.00760014       0.01230186
Fe       4.79727000      11.75927000       9.09533000       0.54049700       0.45513700      -1.32376800      -0.07076889      -0.02995253       0.12868704
Fe       5.80034000       0.20229000       7.24671000      -0.98588000       0.20802500       0.94137200       0.05330596       0.05256954      -0.13692694