1
Lattice="18.0 0.0 0.0 0.0 18.0 0.0 0.0 0.0 18.0" Properties=species:S:1:pos:R:3:REF_forces:R:3:MACE_forces:R:3 config_type=IsolatedAtom REF_energy=-3.283081 MACE_energy=-3.283081 pbc="T T T"
Fe       0.00000000       0.00000000       0.00000000       0.00000000       0.00000000       0.00000000      -0.00000000      -0.00000000      -0.00000000
1
Lattice="18.0 0.0 0.0 0.0 18.0 0.0 0.0 0.0 18.0" Properties=species:S:1:pos:R:3:REF_forces:R:3:MACE_forces:R:3 config_type=IsolatedAtom REF_energy=-0.81049333 MACE_energy=-0.81049333 pbc="T T T"
Si       0.00000000       0.00000000       0.00000000       0.00000000       0.00000000       0.00000000      -0.00000000      -0.00000000      -0.00000000
1
Lattice="18.0 0.0 0.0 0.0 18.0 0.0 0.0 0.0 18.0" Properties=species:S:1:pos:R:3:REF_forces:R:3:MACE_forces:R:3 config_type=IsolatedAtom REF_energy=-0.27559471 MACE_energy=-0.27559471 pbc="T T T"
B        0.00000000       0.00000000       0.00000000       0.00000000       0.00000000       0.00000000      -0.00000000      -0.00000000      -0.00000000
10
Lattice="9.0 0.0 0.0 0.0 9.0 0.0 0.0 0.0 9.0" Properties=species:S:1:pos:R:3:REF_forces:R:3:MACE_forces:R:3 config_type=Fe5B1Si4 REF_energy=-44.58554767 MACE_energy=-22.07917097100797 pbc="T T T"
Fe       3.50176000       8.99673000       3.09396000       0.95435000      -0.45803800       0.21474200       1.07127854      -0.52767623      -0.99931130
Fe       6.43801000       1.81225000       6.74888000       1.10970900      -0.66476800      -1.17007400       0.27775546      -0.33526623      -0.57040793
Fe       2.41193000       0.16613000       4.88253000       0.30913200      -0.89996000       0.17011800      -0.56960142      -0.39289246       1.32047545
Fe       8.52164000       3.22369000       0.34244000      -0.58790500      -0.47306700      -0.37861700       0.00166339       0.00112570       0.00207033
Fe       5.66627000       2.92739000       3.87411000       4.77509600       2.80733600       2.40000400       0.81330121       1.65241062       0.71995117
B        5.18442000       1.13758000       3.40139000      -0.73957100       0.38065100       0.44676100      -0.43075735      -0.23600455      -0.11194034
Si       7.10242000       1.59600000       3.97694000       2.28029300      -3.67324000       1.18634800       1.44512200      -1.56630797       0.62900324
Si       7.70822000       8.86280000       6.25904000      -0.73207200       1.84563600      -0.48266000      -0.27290539       0.48136492      -0.09046129
Si       3.91832000       3.09724000       3.40175000      -6.85054500      -1.08983400      -1.75602400      -2.02167994      -0.21617716      -0.60524427
Si       3.63788000       6.78794000       4.49538000      -0.51848800       2.22528500      -0.63059800      -0.31417649       1.13942337      -0.29413505
10
Lattice="9.0 0.0 0.0 0.0 9.0 0.0 0.0 0.0 9.0" Properties=species:S:1:pos:R:3:REF_forces:R:3:MACE_forces:R:3 config_type=Fe5B1Si4 REF_energy=-48.18464377 MACE_energy=-23.45485476678331 pbc="T T T"
Fe       7.72908000       2.13801000       3.67226000      -0.72140700       1.38590200       0.18439100       0.01560274       0.72418926      -0.14638299
Fe       2.56544000       0.37534000       3.55582000       0.62580800       1.02854400      -0.21951900       0.85613123      -0.02555360      -1.02784237
Fe       5.84797000       2.87648000       5.04299000      -0.51992300      -1.03088200      -1.60504700      -0.31930016      -0.75895976       0.39226987
Fe       2.00259000       1.62931000       5.21757000       0.16709900       0.68697000      -1.46342200      -0.25052315       1.14484297       0.19802683
Fe       3.04146000       3.03902000       3.03634000       2.84541400      -0.11631900       1.57660000       1.43829451      -0.27428613       0.81061857
B        4.26036000       4.67435000       3.72342000       0.68065500      -0.16735200      -1.56590600       0.17572140      -0.36255865      -0.34578781
Si       6.34493000       4.18783000       3.43892000      -0.40775000      -0.06673100      -0.63978400       0.23805093       0.23036782      -0.71154492
Si       0.98363000       2.81182000       2.85911000      -2.44913300      -1.45501500       1.18349900      -1.72724304      -0.66036770       0.46845998
Si       4.97672000       0.35177000       3.88032000      -0.44220000       1.58116100       0.17191700      -0.44948780       0.30693894       0.03365094
Si       4.49316000       6.21641000       2.06194000       0.22143900      -1.84627800       2.37727300       0.02275335      -0.32461315       0.32853191
10
Lattice="11.0 0.0 0.0 0.0 11.0 0.0 0.0 0.0 11.0" Properties=species:S:1:pos:R:3:REF_forces:R:3:MACE_forces:R:3 config_type=Fe5B1Si4 REF_energy=-11.58855075 MACE_energy=-21.69484239564472 pbc="T T T"
Fe       8.76471000       0.00946000       6.88513000      -0.22819700       0.12237200      -0.55543600      -0.00000000      -0.00000000      -0.00000000
Fe       2.63377000       1.33277000       3.45207000      -0.77576300      -0.08136400      -0.00027500       0.18876645       0.35256913      -0.21717117
Fe       9.34605000       7.55219000       3.04608000      -1.57311900      -1.03473800      -0.15487700      -0.26684629      -0.04820535       0.00399631
Fe       6.36389000       7.12183000       3.09324000       1.09683100       0.04242100      -0.12816300       0.27454760       0.03962032      -0.00434171
Fe       1.35866000       0.14865000       4.85122000       1.24564900       1.43265900      -2.24078300      -0.66162981      -0.14387567      -0.09731296
B        0.74424000       4.87887000       2.93866000      -1.13359500      -0.78566000      -1.94809000      -0.03949919      -0.09714962      -0.22162832
Si       0.41110000       1.07145000       2.73658000       1.34178700       0.50456200      -0.25058800       0.76350435      -0.08917467       0.23142954
Si       0.39736000       3.73439000       0.50956000      -1.07905800      -1.52336200       2.18566600      -0.37851058      -0.25775234       0.31371681
Si       9.29283000       2.08457000       0.89045000       2.55214100       0.43757800       0.40081500       0.54481965       0.27723737       0.02636483
Si       2.63700000       1.37373000       1.21644000      -1.44667700       0.88553200       2.69173100      -0.42515218      -0.03326917      -0.03505334
10
Lattice="11.0 0.0 0.0 0.0 11.0 0.0 0.0 0.0 11.0" Properties=species:S:1:pos:R:3:REF_forces:R:3:MACE_forces:R:3 config_type=Fe5B1Si4 REF_energy=-38.14997444 MACE_energy=-22.39216923213329 pbc="T T T"
Fe       0.55560000       8.19331000       7.06229000       0.60700700      -1.87987400       0.40247700       0.03186057      -0.14824996       0.03966827
Fe       0.49601000       2.54487000       7.78872000      -1.62914400       1.44061600       0.72816300      -0.95936126       0.47988766       0.29980241
Fe      10.07332000       3.88379000       9.42053000       1.49055100       0.96476400      -0.05327700       1.14316707       0.61251195       0.79948745
Fe       4.45932000       9.07691000       6.11289000       0.24660800      -0.52821700      -0.02378300       1.08313732      -1.26622931       0.04536705
Fe       9.54221000       0.53076000       0.28158000      -0.51209300       1.49842300      -0.39218500      -0.07720404       0.16697121      -0.03209098
B       10.69505000       5.70310000       8.40523000       0.71876200      -1.05034900      -0.26069900       0.00209100      -0.47962761       0.07570929
Si       9.01619000       3.31434000       7.76349000       0.22101700      -0.39376100      -0.82483600      -0.07756926      -0.55417738      -1.15768108
Si       1.50005000       6.10934000       7.36041000      -1.47354600       0.22179200       0.82993100      -0.25735471       0.05383231       0.10734979
Si       8.29851000       3.23195000      10.75936000       1.25238600      -0.70606300      -0.69191000       0.19642105      -0.12920985      -0.13304501
Si       3.13187000      10.62875000       6.05729000      -0.92154800       0.43266900       0.28612000      -1.08518773       1.26429098      -0.04456719
10
Lattice="11.0 0.0 0.0 0.0 11.0 0.0 0.0 0.0 11.0" Properties=species:S:1:pos:R:3:REF_forces:R:3:MACE_forces:R:3 config_type=Fe5B1Si4 REF_energy=-39.54850766 MACE_energy=-22.892548143157946 pbc="T T T"
Fe       7.32260000       2.25273000       9.60151000      -0.81068000       1.95759200       1.52424100      -0.09799169       0.55313107       0.52595376
Fe       5.30456000       3.18059000       0.62935000       3.59407800       0.60301100       0.45004200       2.15121696       0.69358723       0.29069206
Fe       5.70290000       5.32015000      10.23784000      -0.55638700      -0.41691100      -0.58631200      -0.54275791      -0.62541098       0.25735842
Fe       7.71673000       4.32859000       0.10409000      -1.51783000      -0.48364700      -0.94636500      -0.65915824      -0.66196087      -0.26550104
Fe       5.73415000       7.17747000       8.80515000      -0.19559000      -2.26799700       1.43769300      -0.00915136       0.08225084      -0.06706425
B        3.53335000       2.44513000       3.14396000       1.80602500       1.42469000       1.46529900       0.21994028       0.25500705       0.09153120
Si       3.05847000       4.99331000       9.56994000       1.58460600       0.22347600       0.29443400       0.54123434      -0.09895603       0.29577565
Si       4.66874000       2.05360000       5.35076000      -1.23296500       0.33348000      -2.53096100      -0.14845017       0.05196886      -0.28908934
Si       3.35109000       3.37679000       0.23198000      -2.51854700       0.79060000      -0.76406600      -1.57099655       0.59841042       0.04431951
Si       4.02675000       4.41289000       2.41329000      -0.15270900      -2.16429400      -0.34400600       0.11611434      -0.84802759      -0.88397595
10
Lattice="11.0 0.0 0.0 0.0 11.0 0.0 0.0 0.0 11.0" Properties=species:S:1:pos:R:3:REF_forces:R:3:MACE_forces:R:3 config_type=Fe5B1Si4 REF_energy=-30.22050192 MACE_energy=-21.95313174512466 pbc="T T T"
Fe       7.51027000      10.11418000       2.18625000      -1.69790900       1.72973200      -1.19644900      -1.53750375       1.89499390      -0.25525841
Fe       6.52329000       1.24583000       0.98294000       2.87583100      -1.88416600       0.59355300       0.76334454      -0.36514436       0.56704039
Fe       8.50320000       0.98219000       3.23617000       1.14940800      -1.93965800      -1.01181700       0.38826794      -2.00508669      -0.32323630
Fe       8.81725000       8.60479000       1.96311000       1.70133000      -1.33465300       0.85149000       1.51866836      -1.59535827       0.82345176
Fe       9.16079000       2.26416000       1.64872000      -0.92180800       1.06168500      -1.01542500       0.23892169       1.09797225      -1.13408464
B        8.94441000       4.16897000      10.47399000      -1.12511400       0.54375800       0.63670800       0.00364300       0.03875473       0.14386542
Si      10.42398000       4.23416000       1.05026000      -1.52480000      -0.05410100      -1.01659500      -0.48119179      -0.42730274      -0.10042111
Si       7.56198000       2.31002000       4.34386000      -1.29363800       1.80115300       0.97958300      -0.87921609       1.31137858       1.00311632
Si       8.52672000       8.61906000      10.86161000      -0.94443500       0.65405000      -0.31886100      -0.23048402       0.13078880      -0.86704418
Si       6.81456000       4.96874000       9.06450000       1.78113500      -0.57779900       1.49781200       0.21555013      -0.08099619       0.14257073
10
Lattice="11.0 0.0 0.0 0.0 11.0 0.0 0.0 0.0 11.0" Properties=species:S:1:pos:R:3:REF_forces:R:3:MACE_forces:R:3 config_type=Fe5B1Si4 REF_energy=-36.59236839 MACE_energy=-22.374551893554294 pbc="T T T"
Fe       3.58274000      10.79851000      10.73667000       0.11897900       0.22630100      -0.04976800      -0.00000000      -0.00000000      -0.00000000
Fe       1.22875000       2.49300000       7.21708000       2.26097500      -1.53625800       1.07649700       1.58018650      -0.91775148       1.20839857
Fe       0.83190000       3.93076000       3.48688000       1.35086000      -1.69250200       0.45489600       0.85931495      -1.15995977      -1.15032595
Fe       9.39560000       2.93064000       6.23859000      -2.27414300      -0.91782300      -0.86979000      -1.64238405      -0.41153819      -0.45884427
Fe       1.68648000       4.78764000       5.33563000      -2.42207400      -1.78775100      -0.34755700      -0.57813603      -0.27107966       0.95283435
B        0.09146000       3.23421000       6.27209000       0.33374200       3.18943500      -3.08739300       0.40220635       1.84718834      -2.04886167
Si      10.14804000       1.29848000       4.70398000      -0.27194000       2.69997500       0.88966000       0.01910182       0.47855116       0.37154840
Si       7.91960000       4.68330000       6.38399000       1.00571800      -0.89791700      -1.90531900       0.03259576      -0.18446366      -0.53881939
Si       7.87407000       3.80560000       3.83659000       1.69436900       0.65761100       2.09344900       0.67617055       0.37185411       0.76369063
Si      10.18862000       4.97429000       4.13294000      -1.79648600       0.05892800       1.74532400      -1.34905585       0.24719915       0.90037933
10
Lattice="11.0 0.0 0.0 0.0 11.0 0.0 0.0 0.0 11.0" Properties=species:S:1:pos:R:3:REF_forces:R:3:MACE_forces:R:3 config_type=Fe5B1Si4 REF_energy=-37.97135349 MACE_energy=-21.954244137219092 pbc="T T T"
Fe       9.03194000       7.52207000       3.76953000      -0.41692800       1.06213800       1.36215600       0.16831607      -0.05326686      -0.16674137
Fe      10.13763000      10.16701000       4.97367000      -1.48414600      -0.40832500      -0.11078200       0.82590458      -0.43969395       0.11657780
Fe       4.72985000       7.86062000       7.54580000      -0.46341600      -0.84233600       0.25668000      -0.27469254      -0.61560645      -0.16702178
Fe       8.27206000       8.93115000       5.41966000       2.10203900       0.88604100      -1.49179500      -0.42763941       0.18271582       0.22194122
Fe       4.77388000       2.87329000       5.35297000      -0.27504900      -0.53922100      -0.84728100       0.15426232      -1.13429728      -1.63532066
B        4.61354000       3.86066000       6.74103000      -0.14362800      -0.14915200      -1.57005500      -0.19080682       1.17093466       1.64335693
Si       1.64433000       3.13639000       3.91354000       3.75707800      -0.87803400      -0.36408100       1.25826025      -0.34119876      -0.56259859
Si       3.74801000       5.66030000       6.94882000       0.45210300       0.36957600       0.68487900       0.28768046       0.58095489       0.14816052
Si       8.69515000       0.60160000       4.24738000      -0.18983800      -0.10747800       0.51028900      -0.56475398       0.31277228      -0.17137087
Si      10.87890000       3.62141000       4.73344000      -3.33821400       0.60679200       1.56999000      -1.23653094       0.33668564       0.57301681
10
Lattice="11.0 0.0 0.0 0.0 11.0 0.0 0.0 0.0 11.0" Properties=species:S:1:pos:R:3:REF_forces:R:3:MACE_forces:R:3 config_type=Fe5B1Si4 REF_energy=-19.85588119 MACE_energy=-20.854278025707643 pbc="T T T"
Fe       0.38446000       1.64586000       0.19247000      -0.31544900       0.99906300      -1.16531000      -0.01144346       0.00370912      -0.02693525
Fe       4.73202000       7.12132000       7.31276000       0.31929800      -0.23556100       1.39875500       0.00888110       0.00184476       0.05024760
Fe       0.36789000       2.73674000       6.71847000       0.18431700      -0.99436400      -3.07194200       0.97877258       0.31302669      -1.94932803
Fe      10.07665000       2.07009000       8.11408000      -1.05625300       0.13475800      -0.04421700      -1.48665999      -0.86782303       1.22451067
Fe       0.10300000      10.83360000       4.98934000      -0.79988200       1.03958000       0.82376600      -0.19503975       0.25497305       0.08321562
B        9.83138000       1.34479000       5.59342000       2.73003300      -1.60069300       1.71860100       1.14638020      -0.20215787       1.33135209
Si       8.95511000       2.30296000       4.33786000      -0.13907800       0.36771900       0.11506400      -0.43200958       0.49827204      -0.66281510
Si       3.99539000      10.22212000       8.61506000      -0.05248500      -0.48071600       0.18941400       0.00606169      -0.02551569      -0.01071552
Si       2.69021000       5.15166000      10.73011000       1.27722300       0.17680000       0.10453800       0.05681711       0.00633671      -0.01294828
Si       5.75937000       5.49395000      10.03068000      -2.14772600       0.59341400      -0.06866800      -0.07175990       0.01733423      -0.02658380
10
Lattice="9.0 0.0 0.0 0.0 9.0 0.0 0.0 0.0 9.0" Properties=species:S:1:pos:R:3:REF_forces:R:3:MACE_forces:R:3 config_type=Fe5B1Si4 REF_energy=-45.52219027 MACE_energy=-23.913241150545254 pbc="T T T"
Fe       5.95652000       4.23215000       1.06155000      -0.98767900      -0.50029400      -0.25142400       0.15697734       0.05041905      -0.95241151
Fe       5.13270000       1.30654000       4.87525000      -1.02972800       1.07694500      -1.04271400      -0.56482011       1.06137629      -0.56166801
Fe       0.86010000       2.84042000       4.86982000       1.78090900      -0.14036100      -0.68290200       0.15141203       0.00970250      -0.04145454
Fe       4.80846000       2.20734000       0.33653000      -0.70934400       1.79820400       0.47599400      -0.64339142       0.58148555       0.46945849
Fe       4.84818000       3.73073000       2.87016000      -1.11599800      -1.47444400      -2.61602900      -1.00374231      -0.64350762      -1.34345708
B        3.56051000       3.01373000       4.13091000      -3.27582500      -2.90917300      -1.74282900      -0.63682325      -1.26403929      -0.11093893
Si       3.41138000       1.28778000       2.26512000       0.95707700       2.37405100       0.97860500       0.58656678       0.97549816      -0.23105605
Si       5.16668000       2.63723000       6.68984000       0.07413900      -1.78642600       3.36318600      -0.04950769      -0.46100670       1.43922963
Si       3.08125000       3.86721000       0.97989000       1.93930500      -1.04831500       0.87154200       1.21652149      -0.64763032       0.46037407
Si       4.99984000       3.77363000       4.95280000       2.36714300       2.60981200       0.64657100       0.78680714       0.33770238       0.87192392
10
Lattice="11.0 0.0 0.0 0.0 11.0 0.0 0.0 0.0 11.0" Properties=species:S:1:pos:R:3:REF_forces:R:3:MACE_forces:R:3 config_type=Fe5B1Si4 REF_energy=-40.7418507 MACE_energy=-21.996224816571324 pbc="T T T"
Fe       5.85212000       3.50546000       5.08734000       2.15677100      -0.79414500      -0.20894700       0.20309074      -0.52764764       0.35603309
Fe       4.00684000       5.71103000       1.22208000       0.17321900       0.19260900       1.30384500       0.03625877       0.07901624       0.34532502
Fe       8.00148000       8.34774000      10.98030000      -0.08363800      -0.04550400       0.02901100      -0.00000000      -0.00000000      -0.00000000
Fe       7.35073000       2.40140000       6.64128000       0.77906300       1.12479900      -0.71056100       0.47323639       0.35881215      -0.16494643
Fe      10.15241000       4.26124000       5.16236000      -1.21868700      -1.07976300       1.03424500      -1.15390962       0.04705844       1.06626834
B        7.50939000       3.71850000       4.30627000       0.81775400       0.01191000       1.18846500       0.88269623      -0.01712118      -0.08371434
Si       0.88259000       3.63568000       4.13155000       0.18457900       0.08807600       0.63549900       0.99606332      -0.34766149      -0.57203335
Si       4.29968000       6.34926000       4.01086000      -0.04470200      -1.65685100      -0.27530200      -0.11819471      -0.57949951      -0.01900854
Si       3.89182000       4.30839000       5.36988000      -1.81091900       1.59107900      -0.75492800      -0.81360732       0.83551287      -0.19834002
Si       9.83466000       2.97427000       7.53103000      -0.95344000       0.56779200      -2.24132700      -0.50563380       0.15153011      -0.72958378
10
Lattice="9.0 0.0 0.0 0.0 9.0 0.0 0.0 0.0 9.0" Properties=species:S:1:pos:R:3:REF_forces:R:3:MACE_forces:R:3 config_type=Fe5B1Si4 REF_energy=-42.65563223 MACE_energy=-23.506828341801672 pbc="T T T"
Fe       5.47398000       6.28103000       3.23251000       0.28355300       0.05833700       0.13117200       0.65165062       1.08753831       0.51770052
Fe       3.48819000       2.94480000       4.89866000      -0.87509200      -0.04370600       2.15230300      -0.28133408       0.23824267       1.21277495
Fe       8.33854000       1.27421000       2.74786000      -0.46364400       1.92715600       1.33564000      -0.63255422       0.66044983       0.60671116
Fe       6.99962000       2.76087000       4.14267000      -0.44746500       1.63766400       1.88762100       0.02913255       0.40197706       0.95186229
Fe       1.77962000       3.26723000       3.35280000      -0.52218800      -0.67489800       0.43259300      -0.11745797      -0.34999811       0.27973602
B        4.62666000       4.86714000       2.55939000       0.26614600      -1.03752000       0.98811100      -0.71737058      -1.42228620      -0.44196914
Si       4.18354000       2.39378000       2.99079000       0.43795500       1.50930000      -2.71878500      -0.12175269       0.30479780      -1.01046714
Si       8.55432000       3.88894000       3.61944000       3.24804800       2.01892900      -1.57919700       1.63381837       0.35353069      -0.38205403
Si       5.93563000       1.17498000       3.69373000      -1.91994400      -5.30800600      -1.48876300      -0.35924693      -1.58940374      -0.64161681
Si       0.45419000       2.68863000       5.46192000      -0.00736800      -0.08725600      -1.14069400      -0.08488509       0.31515168      -1.09267783
10
Lattice="11.0 0.0 0.0 0.0 11.0 0.0 0.0 0.0 11.0" Properties=species:S:1:pos:R:3:REF_forces:R:3:MACE_forces:R:3 config_type=Fe5B1Si4 REF_energy=-34.53347477 MACE_energy=-21.67089623078688 pbc="T T T"
Fe      10.38446000       0.44273000       4.17388000      -0.78237800      -1.86098300       1.10984900      -0.28224448      -0.29820377       0.29212978
Fe       5.58579000       5.13476000       2.28318000      -1.35183300       0.99168200      -0.54319900      -0.39824329       0.52575526       0.81637414
Fe      10.26893000       9.29847000       6.65501000       0.41344200       0.04548900      -2.04786900       0.32267425      -0.08863036      -0.65432342
Fe       8.86095000       8.11141000       4.18070000       1.29133000       1.24914000       1.04926000       0.14746666       0.09011647       0.17287903
Fe       7.69214000       0.53975000       5.12514000       1.95509500      -0.60911200      -1.00813900       0.45810879      -0.01257474      -0.16332031
B        2.74748000       4.83778000       0.91630000       1.39196400      -0.12393600      -0.20196400      -0.30520063       0.06009269       0.28977083
Si       6.81162000       1.90994000       1.53462000      -0.52184800       1.18261600      -0.41056100      -0.16894511       0.53502338      -0.23676087
Si       6.12115000       4.10888000       0.52255000       1.58173000      -1.75162600       1.46051100       0.85195442      -1.18988872      -0.57893889
Si       0.91081000       9.09353000       4.86613000      -2.08485700       0.69467200       0.51855400      -0.64600407       0.30929061       0.35263960
Si       4.16380000       4.58033000      10.67633000      -1.89264600       0.18205800       0.07355800       0.02043347       0.06901917      -0.29044990
10
Lattice="11.0 0.0 0.0 0.0 11.0 0.0 0.0 0.0 11.0" Properties=species:S:1:pos:R:3:REF_forces:R:3:MACE_forces:R:3 config_type=Fe5B1Si4 REF_energy=-31.88716106 MACE_energy=-22.522012402572205 pbc="T T T"
Fe       1.14116000       9.49468000      10.94139000       1.03161900      -0.44995100      -0.39877100       0.11692724      -0.18996929      -0.12175273
Fe       7.21367000       6.98307000       4.70883000      -2.94301400      -1.46688800       0.65014200      -0.97969944      -0.05428135      -0.02816954
Fe       4.99485000       7.56523000       3.28858000       0.74465000      -0.23543700      -0.70888800       0.18593063      -0.41743079      -0.08810417
Fe       5.11075000       7.78078000       8.02245000      -0.73545200      -0.54142400       0.97332500      -0.23497165      -0.34951080       0.04484058
Fe       5.02580000       6.08327000       6.14288000       1.53107200       2.07986600      -0.44355300       0.47907978       0.58964502       0.00269793
B        6.46739000       9.52531000       1.42776000      -0.83213000      -0.78314200       0.21534400      -0.01142565      -0.01505657       0.01404111
Si       3.36056000       5.78054000       9.88043000      -0.35408900       0.86759200       0.70337500      -0.17106262       1.14694110       0.54618193
Si       3.68875000       6.60974000       1.41965000       0.14004300       0.02695200      -1.00259500       0.31695150       0.31259973      -0.29332496
Si       3.95884000       8.08391000      10.56775000       0.21456400       0.93303900      -0.26874100      -0.60521156      -0.83740141      -0.47879082
Si       1.56076000       7.66233000       9.57449000       1.20273800      -0.43060700       0.28036300       0.90348177      -0.18553563       0.40238067
10
Lattice="11.0 0.0 0.0 0.0 11.0 0.0 0.0 0.0 11.0" Properties=species:S:1:pos:R:3:REF_forces:R:3:MACE_forces:R:3 config_type=Fe5B1Si4 REF_energy=-2.43842541 MACE_energy=-22.26044647994269 pbc="T T T"
Fe       8.11536000       3.96737000       6.09845000       2.52379000       3.39438000      -0.10855200       1.95330898       1.98222328      -0.50176578
Fe       4.00538000       4.00868000       8.30741000       1.03860200       0.49749300      -0.86210200       0.01673424      -0.00559887      -0.01623818
Fe       6.21734000       5.49238000       4.54674000      -1.90078500      -0.53233000       2.45773000      -1.42479616      -1.22241314       1.33263812
Fe       6.37295000       3.21617000       6.01003000      -4.31429000      -0.62928100      -0.35144300      -2.68778478      -0.48529392      -0.75590408
Fe       4.28107000       3.14598000       4.09228000       1.68301600       0.43320300       1.57416800       0.50522514       0.17148890       0.37363341
B        8.65122000       7.09833000       7.78974000      -0.81588400      -0.96711600      -2.45875700       0.00603230       0.04820436       0.20052347
Si       8.15838000       5.95236000       4.46257000       2.65955200       1.43037300       0.95638300       1.57359398       0.38704101       1.01105055
Si       7.04021000       6.67768000       6.73922000       0.09201500      -1.71899800      -1.45860000       0.24375023      -0.68068573      -1.21434307
Si       9.92269000       6.79012000       6.33039000      -1.33422700      -1.06385500      -1.26044000      -0.49866133      -0.23157521      -0.45436052
Si       6.58826000       7.17809000       3.12641000       0.36821200      -0.84387000       1.51161300       0.31259740       0.03660931       0.02476607
10
Lattice="6.0 0.0 0.0 0.0 6.0 0.0 0.0 0.0 6.0" Properties=species:S:1:pos:R:3:REF_forces:R:3:MACE_forces:R:3 config_type=Fe5B1Si4 REF_energy=-53.79328822 MACE_energy=-24.652464949540818 pbc="T T T"
Fe       0.50996000       2.31585000       5.10298000      -1.26599000      -0.50951400      -1.36914100      -0.55898913      -0.46282869      -0.41242766
Fe       4.41281000       4.39623000       3.51801000       2.05066400       2.95138500      -2.14682400       1.19241972       1.74196117      -2.05094132
Fe       1.31233000       5.37312000       2.96679000      -9.66985400       0.21848200       6.64889800      -2.20678716       0.26502088       1.91493198
Fe       5.30196000       5.42046000       5.41384000       1.20364700       0.82237100      -1.12375000       0.37801273       0.48858265      -0.34198855
Fe       2.97556000       4.92730000       5.11455000      -0.79718400       0.13310700       0.96147400      -0.43861382      -0.18040242       0.66405601
B        5.46078000       0.52907000       3.64926000      -0.06089300       0.25590500       0.66478200       0.10776755      -0.54236704       0.18320666
Si       2.81628000       5.37752000       2.00180000       6.85751800      -0.72904200      -5.53711500       1.85221605      -0.26611339      -0.99425848
Si       3.67557000       2.72706000       4.43876000      -0.82806600      -3.20205400       1.23328500      -0.35995794      -1.19569569       0.32832481
Si       4.50462000       4.23004000       1.13387000       0.98654700      -1.71437000      -0.38631400      -0.28452658      -0.22322682      -0.01422283
Si       3.47649000       1.50306000       2.12993000       1.52361000       1.77373100       1.05470500       0.31845860       0.37506935       0.72331937
10
Lattice="12.0 0.0 0.0 0.0 12.0 0.0 0.0 0.0 12.0" Properties=species:S:1:pos:R:3:REF_forces:R:3:MACE_forces:R:3 config_type=Fe5B1Si4 REF_energy=-45.66921287 MACE_energy=-22.695478006236847 pbc="T T T"
Fe       4.03767000       2.41086000       6.51410000       1.86803300       0.00585300       0.51063200       1.55663365       0.11070537       0.13504719
Fe       4.79727000      11.75927000       9.09533000       0.54049700       0.45513700      -1.32376800      -0.60823356      -0.27046030       1.12338412
Fe       5.80034000       0.20229000       7.24671000      -0.98588000       0.20802500       0.94137200       0.38335955       0.55111610      -1.21546707