15
Lattice="5.664536 0.0 0.0 0.0 5.664536 0.0 0.0 0.0 5.664536" Properties=species:S:1:pos:R:3:REF_forces:R:3:MACE_forces:R:3 config_type=Fe13Si1B1 REF_energy=-108.19731369 MACE_energy=-100.89687942454643 pbc="T T T"
B        4.05901000       2.70568000       1.01305000      -1.63855300      -0.82904000       0.73367400      -1.82456255      -1.19574927       0.31393825
Si       2.82856000       0.10655000       3.62968000      -1.37485700       1.04288500       1.12851000      -1.69030402       1.14839974       1.65555341
Fe       2.58297000       1.18377000       1.20948000       0.93367000       0.14656100       0.38941200       1.52848231      -0.34212302      -0.15487465
Fe       0.38153000       0.68989000       3.08804000       0.88723900       3.84366500       0.15858400       0.41476743       3.29800251       0.56096065
Fe       1.54589000       2.38203000       4.72041000      -2.07199500      -0.40415400      -0.21731400      -2.10952942      -1.07809715      -0.13884165
Fe       0.00965000       3.55673000       0.57847000       1.87002200       0.46818400      -0.57360300       1.81313439       0.93710887      -0.45336057
Fe       4.86453000       2.71686000       2.75028000       1.57660800      -1.70083300       1.51404400       1.35320889      -1.19237986       1.68426352
Fe       4.62966000       0.98828000       5.06676000       0.07922500       1.31640700       1.29952100      -0.35402626       1.24232840       0.67152989
Fe       0.62475000       4.47163000       2.76945000       1.95380600      -3.21231900      -1.53544400       1.76200973      -2.64133353      -1.44688631
Fe       4.87774000       4.67993000       4.41653000      -0.64493200      -0.53503200       0.30435400      -0.17897105      -0.99152268      -0.02086715
Fe       3.59664000       2.87221000       4.83153000       0.23532500      -0.37357900      -1.60523300       0.72211632       0.40188391      -1.28749083
Fe       0.66156000       0.50203000       0.73880000      -0.79576700      -0.85035100      -0.29863700      -1.36536969      -0.76754117       0.02676395
Fe       2.16986000       4.37529000       0.15492000      -0.00013300       0.94038800       0.69583500       0.55138402       0.81924345       0.49887108
Fe       3.84648000       4.71531000       2.05312000       0.75417200       0.77170900      -2.19861800       1.23239811       0.81211139      -2.36674374
Fe       2.60819000       2.98871000       2.55518000      -1.76382900      -0.62449100       0.20491400      -1.85473822      -0.45033158       0.45718416
15
Lattice="5.664536 0.0 0.0 0.0 5.664536 0.0 0.0 0.0 5.664536" Properties=species:S:1:pos:R:3:REF_forces:R:3:MACE_forces:R:3 config_type=Fe13Si1B1 REF_energy=-108.15566798 MACE_energy=-100.26536530946912 pbc="T T T"
B        4.14873000       2.95379000       1.06658000       0.16200100      -0.29917000      -0.39394100       0.51187945      -0.19891023      -0.35090290
Si       3.70970000       1.75376000       4.70342000       2.39954500       1.99334400       0.69658000       1.88194390       1.63123634       0.22546375
Fe       0.77141000       5.48369000       0.61772000       0.15863900      -0.70463600       0.73580300       0.17263557      -0.93927128       0.50057863
Fe       2.70222000       5.62328000       2.66112000      -2.84701800       1.11988600      -2.77526600      -2.15233147       1.32367280      -2.41894102
Fe       2.40590000       1.49012000       0.76033000       2.44811900      -1.09619800       2.05304000       1.67741902      -0.99228656       1.94228153
Fe       0.05981000       0.25678000       4.08407000      -0.72088300      -0.40435400      -1.12965000      -0.64714991      -0.09554690      -1.16879022
Fe       2.69016000       5.46683000       4.60121000      -0.81406600      -1.20768000       2.79556400      -0.57828169      -1.25281945       2.10971208
Fe       1.47386000       1.76151000       4.03878000       0.25632200       2.31886200      -0.70750300       0.53775669       2.14637873      -0.48903470
Fe       5.58209000       3.47185000       2.53703000       2.04828400       0.56513400      -0.37619200       2.09342016       0.50153720       0.26861408
Fe       2.39981000       3.74553000       0.37431000      -0.23425500       0.56240000       0.37900500      -0.56347417       0.39388240       0.28200811
Fe       4.35312000       1.55651000       2.64463000       0.99871600      -1.26274600      -2.03362100       0.81920494      -1.40211288      -1.81002612
Fe       4.71996000       4.32124000       4.97431000      -0.09930100      -2.16645100       0.36829600      -0.61757633      -2.25472715       0.03812832
Fe       4.35696000       5.05523000       1.41829000       0.42683500       0.31250100      -0.90165400       0.67952594       0.82752251      -0.56485881
Fe       0.47139000       2.05266000       0.60057000      -2.75315200       0.98470800      -0.10508100      -2.27034097       1.25387868       0.01067709
Fe       3.41003000       3.62129000       2.91823000      -1.42978400      -0.71560000       1.39462200      -1.54463112      -0.94243422       1.42509019
15
Lattice="5.664536 0.0 0.0 0.0 5.664536 0.0 0.0 0.0 5.664536" Properties=species:S:1:pos:R:3:REF_forces:R:3:MACE_forces:R:3 config_type=Fe13Si1B1 REF_energy=-107.93807169 MACE_energy=-99.8889227513958 pbc="T T T"
B        3.89991000       3.42526000       0.45422000       0.11547000      -0.03553900       1.12451100       0.60102369      -0.23186359       1.96264675
Si       3.48762000       0.16630000       4.61337000       0.32574800       0.46308000      -0.01786500      -0.37425292       0.89943820       0.37912018
Fe       2.84778000       1.82037000       0.82228000      -0.98232500      -1.42221600      -1.89337000      -1.84139453      -1.46775605      -1.89455331
Fe       1.34857000       0.81784000       2.30075000      -0.53643500       0.46265000      -1.19653800      -0.39184660       0.66889955      -1.76593762
Fe       1.57642000       1.26355000       4.33118000       0.04619000       0.17232100       0.29400800       0.98329386       0.12608995       0.53138014
Fe       0.65713000       2.94926000       0.95396000      -1.72120200      -1.22782100       0.66296100      -1.57615864      -1.37274442       0.51781160
Fe       4.05988000       1.97076000       2.38888000       1.24013900      -1.25976700       1.55714700       1.61034506      -1.39300838       1.23099649
Fe       5.41523000       1.91313000       4.86891000      -2.57043500      -0.52568200      -0.40262900      -2.89311439       0.01251842       0.09416899
Fe       1.35795000       4.61467000       3.62292000      -1.17710100      -0.19986100       1.26666800      -1.11363516       0.47229605       1.44290233
Fe       4.95776000       4.27854000       4.85033000       2.20080800       0.77958800      -0.24901600       2.68648830      -0.21052777      -0.71840323
Fe       2.90817000       3.15860000       4.25698000      -0.87756600      -0.39846100       1.25184100      -0.68893164      -0.73776505       0.66944232
Fe       4.97903000       5.64594000       1.36431000      -0.69131800      -0.04726100      -0.44322300      -0.53682654       0.19079040      -0.34117573
Fe       1.21860000       5.04312000       0.28941000      -0.01329800       1.97019200      -1.42146800      -0.13349592       1.95061824      -1.57819706
Fe       4.19049000       3.99341000       2.69223000       2.99720200       1.59092800      -0.45710200       2.15839525       1.69307857      -0.46850382
Fe       2.24232000       4.14646000       1.80095000       1.64412400      -0.32215200      -0.07592500       1.51011020      -0.60006414      -0.06169802
15
Lattice="5.664536 0.0 0.0 0.0 5.664536 0.0 0.0 0.0 5.664536" Properties=species:S:1:pos:R:3:REF_forces:R:3:MACE_forces:R:3 config_type=Fe13Si1B1 REF_energy=-111.97852358 MACE_energy=-104.43508154302738 pbc="T T T"
B        0.06916000       5.66432000       5.18689000       0.12008200      -0.64043800       0.01360000       0.18326117      -1.11794380       0.54970559
Si       0.02740000       2.72248000       2.59682000      -0.95092500       0.36379500       0.29566700      -1.41910624       0.59921582       0.20731532
Fe       0.14116000       5.54768000       2.85133000       0.08282300      -0.00674100       0.52027800      -0.25068447       0.20345200       0.05035612
Fe       5.56722000       2.97052000       5.53670000      -0.67309900       0.24460700       0.18564600       0.09710755       0.23789478       0.43796096
Fe       2.56501000       0.00405000       5.40440000       0.68434000      -0.27592000       0.60718700       0.57287414      -0.27293037       0.58007102
Fe       2.97079000       2.77487000       5.60913000       0.61990200      -0.30745300       0.59180600      -0.25070536      -0.13983889       0.03541675
Fe       3.14055000       2.58779000       2.39876000      -0.26535600       0.46856000       0.15364600      -0.27883575       0.23606477       0.36952475
Fe       1.27023000       1.29362000       1.29220000       0.59662900      -0.36144800      -0.82067800       0.52910595      -0.46634405      -0.91371758
Fe       1.26884000       1.40412000       4.24821000      -0.00500300       0.79776500      -0.57479700       0.20050739       1.26060802      -0.48525370
Fe       1.43809000       4.26211000       1.36341000       0.07769500      -0.05884300      -0.22592600       0.23234900      -0.02772594      -0.19803956
Fe       1.52070000       4.14480000       4.13170000      -0.18321100      -0.27105400      -0.71528600      -0.11468132      -0.77434742      -0.65655458
Fe       4.46936000       1.09579000       0.98330000      -0.11971100       0.01004100       0.24750400       0.14746209       0.15174402       0.29945554
Fe       4.16783000       1.22547000       4.11325000       0.42899800      -0.08684700      -0.08842400       0.47761143       0.03831913      -0.12611163
Fe       4.22673000       4.46813000       1.30140000       0.09689500      -0.37725000      -0.41990000       0.21094178      -0.24895305      -0.07579794
Fe       4.20815000       4.21553000       4.01300000      -0.51005900       0.50122500       0.22967700      -0.33720737       0.32078499      -0.07433104
15
Lattice="5.664536 0.0 0.0 0.0 5.664536 0.0 0.0 0.0 5.664536" Properties=species:S:1:pos:R:3:REF_forces:R:3:MACE_forces:R:3 config_type=Fe13Si1B1 REF_energy=-111.93959828 MACE_energy=-104.1408788269785 pbc="T T T"
B        0.52210000       0.05440000       5.04153000      -0.83789800      -0.96014800      -0.42271900      -0.72398736      -0.68691710      -0.45312964
Si       5.59498000       2.75302000       2.63746000      -0.41285400      -0.16722200       0.32382300      -0.60840338      -0.70299939      -0.18975647
Fe       0.17766000       0.05624000       2.77011000      -0.22089500       0.44737300       1.17937900      -0.37094948       0.26071818       0.77536912
Fe       5.59682000       2.78032000       5.61495000      -0.22239300       0.41310500      -0.03657000      -0.31500797       0.37117145      -0.19596953
Fe       2.71989000       5.37982000       5.43745000       0.17724800       0.17436200       0.47840000      -0.18444904       0.93659440       0.33729741
Fe       2.70157000       2.72483000       5.65192000       0.89303700       0.73165300       0.81071700       0.63376370       0.34479576       0.64123638
Fe       2.97278000       2.68063000       2.60608000       0.64664100       0.39382500      -0.89779500       1.09163567       0.63334959      -0.99385653
Fe       1.04462000       1.15381000       0.98518000       0.85892600      -0.28038300       0.02628300       0.88675683       0.22400392       0.60119779
Fe       1.65813000       1.50296000       3.98982000      -0.38663100      -0.26210300      -0.11433700      -0.40697596      -0.17120364       0.10463177
Fe       1.30631000       4.30849000       1.24352000      -0.41412900       0.11159100       0.24697100      -0.21390788      -0.26783697       0.33401047
Fe       1.58576000       4.06734000       3.99489000      -1.17533100      -0.00634600      -0.85725300      -0.86971822      -0.13915218      -0.81053168
Fe       4.12820000       1.13618000       1.10587000       0.62554700       0.31979100       0.22031500       0.56095677       0.36274770       0.40423992
Fe       4.25787000       1.24949000       4.17529000      -0.08913900      -0.07677300       0.23295600       0.18082774       0.22602160       0.15127832
Fe       4.35495000       4.45297000       1.34581000      -0.13361000      -0.53467800      -0.51744000      -0.21728239      -0.71939152      -0.05970461
Fe       4.41108000       4.43949000       4.32316000       0.69148200      -0.30404700      -0.67272800       0.55674095      -0.67190180      -0.64631272
15
Lattice="5.664536 0.0 0.0 0.0 5.664536 0.0 0.0 0.0 5.664536" Properties=species:S:1:pos:R:3:REF_forces:R:3:MACE_forces:R:3 config_type=Fe13Si1B1 REF_energy=-111.86184603 MACE_energy=-102.84113768117976 pbc="T T T"
B        1.50863000       1.78767000       4.90152000      -0.44122900      -0.13378600       0.30200900       0.05329225      -0.19948097       0.23194617
Si       4.79549000       2.24346000       2.10133000      -2.02834800      -2.06166200      -2.37230900      -1.22795232      -1.25367025      -2.00914445
Fe       3.20380000       0.75276000       3.12970000      -0.26094900      -0.46491400       0.88121400       0.19023756      -0.21217862       1.31566979
Fe       2.86828000       3.52346000       0.83472000       0.63525800      -0.40693500      -0.10677300       0.47682870      -0.91756024      -0.27528550
Fe       0.30208000       0.41203000       3.59178000       0.43152100       1.99959300       0.71104900       0.43266084       1.90069051       0.14370033
Fe       4.64149000       4.82814000       4.64319000      -2.32204000      -0.32641000       1.26424000      -2.59292198      -0.33523133       1.25390602
Fe       1.38623000       5.04883000       1.95913000       0.13404600      -0.76597900       0.26900800       0.43618551      -1.03902154       0.72252414
Fe       0.01651000       0.69762000       0.56316000       0.43357300       0.50429600      -0.59615700       0.07203919       0.29069493      -0.38408873
Fe       1.71843000       1.81951000       1.96274000      -0.50569400       0.44278300      -1.08150200      -1.24952244       0.82221143      -1.04595882
Fe       2.49328000       3.31853000       3.75571000       0.60663900       0.53722000       0.22889400       0.43897403       0.44602185       0.46479553
Fe       0.35204000       3.39611000       0.17394000       0.28417100      -0.58935200       0.45847800      -0.08225045      -0.72502907       0.71538547
Fe       0.11270000       3.44811000       3.40342000       2.52442400       0.78461300       1.86263000       2.37695407       0.87157844       1.39439009
Fe       4.37430000       4.86511000       1.96411000       0.02203300      -0.44143500      -0.21812100       0.41250452      -0.60173033      -0.24277207
Fe       1.91304000       5.29856000       5.45252000       0.85584700       1.12077600      -1.36953800       0.98878803       0.84134573      -1.91797198
Fe       3.73798000       1.56980000       5.38787000      -0.36925300      -0.19880800      -0.23312100      -0.72581753       0.11135945      -0.36709598
15
Lattice="5.664536 0.0 0.0 0.0 5.664536 0.0 0.0 0.0 5.664536" Properties=species:S:1:pos:R:3:REF_forces:R:3:MACE_forces:R:3 config_type=Fe13Si1B1 REF_energy=-121.96103282 MACE_energy=-102.36852336042546 pbc="T T T"
B        1.89945000       0.62627000       3.85277000      -2.50069800       2.16966800      -1.53918900      -3.02737345       2.55766207      -0.72343317
Si       0.20120000       2.04269000       2.64503000       1.02931600      -0.66199100      -2.72694900       1.26750759       0.08134249      -2.64090484
Fe       2.66066000       5.42797000       2.26357000       0.53979700      -0.03646200      -1.31830900       0.28467838      -0.88624407      -1.23495595
Fe       2.90276000       2.67008000       2.15492000      -1.83815700      -0.38139400      -2.84113500      -2.18389617       0.36859293      -2.17368796
Fe       3.76617000       1.41579000       3.61058000       1.59818700      -1.99316500       0.96094000       1.56095391      -1.04637285       1.17841853
Fe       4.35629000       3.78643000       3.20548000      -0.08184500       1.05317100       0.76552100      -0.52462711       0.86510851       0.83854713
Fe       4.47628000       4.06991000       0.64852000      -0.83953300      -0.22453300       0.86736600      -0.99358967      -0.18641805       0.18126497
Fe       4.19523000       1.12987000       0.84517000       0.20926900       0.78044000      -1.95195400       0.05860511       0.30696036      -0.67212067
Fe       1.20944000       0.98558000       0.54562000       0.36331500       0.64694800       1.15320100       0.43895571       0.55129316       0.31976597
Fe       2.93679000       5.24715000       4.85612000       1.78737200      -1.05335100       3.04321700       1.92853206      -1.82795071       2.40671115
Fe       2.46429000       3.02068000       4.78866000      -0.08418600      -0.93215200       0.71303400      -0.23804949      -0.63319935       0.04468413
Fe       5.64539000       2.77685000       4.69631000       0.33002600      -0.76378800       3.33994500       0.63158894      -0.05267435       2.70688001
Fe       1.14045000       3.92385000       0.99225000      -0.27335200       0.02348800       0.25089500       0.20886936       0.01517144       0.01462120
Fe       0.17432000       5.38924000       4.59788000      -0.87103600      -0.20642700       0.99417600      -0.38386366      -0.67965013       0.75220469
Fe       5.41134000       5.44443000       2.36685000       0.63152700       1.57954900      -1.71076000       0.97170849       0.56637855      -0.99799520
15
Lattice="5.664536 0.0 0.0 0.0 5.664536 0.0 0.0 0.0 5.664536" Properties=species:S:1:pos:R:3:REF_forces:R:3:MACE_forces:R:3 config_type=Fe13Si1B1 REF_energy=-109.57699008 MACE_energy=-101.75259617298512 pbc="T T T"
B        1.60964000       1.20953000       3.30762000      -0.01479600      -0.54483200       0.36412700       0.21744701      -0.46232261       0.22163779
Si       1.95419000       3.78303000       0.40477000       2.58923000       0.78612200      -1.61162900       2.51325364       0.83475036      -1.28099609
Fe       3.57229000       4.89724000       1.78218000      -0.69680300       0.94883800       2.04020100      -0.95766978       0.80216776       1.69829188
Fe       3.21513000       2.00319000       1.86162000       1.30615200      -1.04311700      -1.34636300       1.01169306      -0.97796767      -1.53068912
Fe       5.12136000       1.05340000       3.05836000       0.48907600      -0.57242700       0.35981000       0.10394478      -0.78923103       0.47632938
Fe       5.33303000       3.41064000       3.19935000      -1.19050900       0.64225800       0.16946300      -0.63415887       0.84059938       0.04154491
Fe       4.69645000       3.56410000       0.59057000       0.42357200      -2.45414500       1.39631500       0.53268855      -2.67291960       1.34672211
Fe       5.00397000       0.79608000       0.67759000       0.28054300       1.18762000       0.69531900      -0.32848661       0.27652454       0.35374230
Fe       1.02131000       2.39370000       1.67631000      -1.48205000      -1.99677700       1.89497700      -1.37078508      -1.32875120       1.57820025
Fe       4.49205000       4.87623000       4.87240000      -1.22864200       1.13873400      -2.26444700      -0.77298965       1.44267726      -2.61437869
Fe       3.40200000       1.47027000       4.46233000      -0.01871000      -0.18409200       0.67173000       0.12118105      -0.93893194       1.14058189
Fe       0.59504000       2.14210000       5.17631000       0.66645200      -0.32293300      -3.32851400       0.55341469      -0.45914955      -2.47409284
Fe       1.14446000       5.07983000       4.43636000      -0.37358200       1.06798600      -0.87155500      -0.38134695       0.93775845      -0.94440694
Fe       2.52599000       3.18146000       3.48749000      -0.80261000       1.79870400       1.25168000      -0.69284699       2.47299735       1.32094843
Fe       0.91985000       5.18762000       1.86613000       0.05267700      -0.45193900       0.57888600       0.08466117       0.02179850       0.66656472
15
Lattice="5.664536 0.0 0.0 0.0 5.664536 0.0 0.0 0.0 5.664536" Properties=species:S:1:pos:R:3:REF_forces:R:3:MACE_forces:R:3 config_type=Fe13Si1B1 REF_energy=-111.24757227 MACE_energy=-102.8908531679491 pbc="T T T"
B        2.53656000       2.62317000       3.66583000      -0.11566700      -0.22978700       0.53017200      -0.21889525      -0.11615696       0.42289486
Si       0.67483000       4.27329000       2.69225000       0.92910600       0.68145900       0.71622000       1.30012963       0.30519589       0.94725152
Fe       5.14560000       5.37767000       1.05479000      -0.04263700       0.54874800      -0.34508500      -0.36578054       0.51931822      -0.26663633
Fe       5.17725000       2.96978000       1.28337000      -0.94481700       0.15150400      -1.65556500      -1.36480925       0.23086182      -2.03251815
Fe       4.74580000       3.13666000       4.02461000      -0.25444200      -0.82574700      -0.11998600      -0.11623871      -0.39823928      -0.20667477
Fe       0.33821000       1.51110000       2.57588000       1.22080500      -1.49602800       0.46012600       1.57489112      -1.22170296       0.83535194
Fe       3.09808000       4.41167000       2.55098000       1.58954700      -0.62340300      -0.59486000       1.91245640      -1.20031859      -0.57891610
Fe       4.73088000       0.16933000       4.32731000       1.21238200      -0.98254900      -0.92008400       1.07772087      -1.13595735      -1.06271007
Fe       3.65998000       1.37781000       0.06620000      -0.53114300       0.39644200       0.40797800      -0.64222002       1.32799484       0.09928801
Fe       3.63898000       1.27668000       2.55773000      -0.56432500       0.60761700      -1.09420600      -0.30033048       0.12165260      -0.73009365
Fe       3.30156000       4.03302000       5.51710000       0.66273100       0.68309200      -0.51252300       0.90556548       0.91773991      -1.11707284
Fe       2.04972000       2.93776000       1.03536000      -1.23701100      -0.98796000       1.66434700      -1.65037203      -1.24371226       1.97833265
Fe       2.16302000       5.60665000       3.99134000      -0.76618900       1.59088200       1.80303200      -0.75300326       1.61244135       1.73405453
Fe       0.95543000       1.84266000       4.95473000       0.27866900      -0.07002100       0.06014100      -0.10479663      -0.22122881       0.15217252
Fe       2.02568000       0.02468000       0.99960000      -1.43701000       0.55575000      -0.39970700      -1.25431732       0.50211157      -0.17472412
15
Lattice="5.664536 0.0 0.0 0.0 5.664536 0.0 0.0 0.0 5.664536" Properties=species:S:1:pos:R:3:REF_forces:R:3:MACE_forces:R:3 config_type=Fe13Si1B1 REF_energy=-108.79062395 MACE_energy=-101.75897454706168 pbc="T T T"
B        5.36400000       3.87568000       4.45905000       0.44648400       0.57032200       0.28604800       0.18998829       0.44022958       0.25137105
Si       3.93387000       4.96403000       3.15711000      -4.30606800      -2.31482200      -2.68264300      -3.61066467      -1.73055652      -2.15291141
Fe       3.00216000       0.92096000       1.44117000      -0.76996800       0.42082500      -0.07835300      -0.76479536       0.26757166       0.21472908
Fe       1.34518000       5.62588000       2.73234000       2.41172500       0.19969700       0.20083700       2.58358148       0.18718655       0.40321575
Fe       0.44730000       2.09377000       4.98703000       1.17940300       0.68255400       0.66504100       1.31277080       0.15778868       0.41875592
Fe       0.30923000       3.79563000       2.39919000      -0.97580900      -1.20085800      -1.00234600      -0.31681769      -0.57566345      -1.05566978
Fe       0.18648000       1.06356000       1.31692000      -0.60348600       1.79501500       0.12312700      -0.05475176       1.74021351      -0.04948771
Fe       4.00265000       2.83038000       0.00570000       0.03088500      -0.70677300      -0.45368100      -0.07621257      -0.40227496      -0.16741743
Fe       5.37135000       0.30945000       4.05759000       2.43746500       1.21842000       2.05861100       1.24644021       1.33559067       1.69254892
Fe       2.32985000       3.12186000       1.52540000       0.40818200       0.55373600       0.67629300      -0.13433062       0.39557045       0.34532200
Fe       2.77320000       0.82160000       4.63749000       0.11143500       0.28254000       0.06072400       0.29747416       0.41658710       0.07198038
Fe       1.20304000       4.94889000       5.64649000       0.50304000      -0.54997900       0.60819900       0.32464571      -0.08183584       0.87411683
Fe       4.43330000       2.29054000       2.94368000      -1.10290800       0.42652200       0.72577900      -1.04301011       0.12797971       0.53002322
Fe       4.45738000       5.14386000       0.73674000       0.07827300      -0.88309100      -1.20270400       0.00532870      -1.67536987      -0.98649324
Fe       2.20236000       3.55424000       4.11335000       0.15134500      -0.49410700       0.01507000       0.04035345      -0.60301728      -0.39008357
15
Lattice="5.664536 0.0 0.0 0.0 5.664536 0.0 0.0 0.0 5.664536" Properties=species:S:1:pos:R:3:REF_forces:R:3:MACE_forces:R:3 config_type=Fe13Si1B1 REF_energy=113.06017811 MACE_energy=-101.46816826143913 pbc="T T T"
B        1.39848000       0.19193000       0.61048000      -4.08297800       9.29302800       8.69098400       0.87878933       1.27536918       1.72646575
Si       2.92490000       2.16030000       2.14060000      -2.63496600       9.58037000      -0.49561900      -0.53410840      -1.11834787       1.20672745
Fe       2.86073000       2.70503000       5.26584000       4.32356800      10.20896900      -4.70309300       1.33282567      -1.55681832      -1.36382301
Fe       4.47802000       3.64784000       3.04881000      -8.75739200       8.66530300      12.20431400      -0.22149604       0.61824962       2.99246827
Fe       0.21576000       2.05514000       5.23160000     -18.24380600     -12.70694800      22.88283100       2.16534210       0.43301689      -0.61764187
Fe       0.44166000       2.36030000       2.32519000       9.91181000      13.04098500      -5.34425400       1.53074445      -0.42102665      -0.31608527
Fe       2.03954000       3.82953000       1.07367000      -9.51630500       5.90074000      24.04305300      -2.30050068       2.14439015       0.88649459
Fe       1.39295000       3.86962000       3.86875000       5.08493300      -5.56046400     -11.44166200       0.29559572      -0.41408059      -0.47090264
Fe       4.42805000       1.04262000       3.76613000      10.93879500       4.90624100      -3.25114800      -0.58229054       0.93656378       0.26069089
Fe       4.44753000       1.10914000       0.85325000      15.14670800      12.45203200      -7.47268500      -0.02447505      -0.77062741       0.17208396
Fe       3.06886000       5.29358000       5.21060000      31.03933500     -34.73641400       1.35306500       0.40786425      -0.00452933      -0.59359642
Fe       4.80801000       3.61880000       0.94850000       7.81841300       1.86551900       0.92546600      -1.17548885       0.10523681      -1.30686432
Fe       0.75179000       0.26400000       3.08937000     -19.58866100       1.56533600      18.55626500       0.69134700      -0.67912315      -0.83120322
Fe       3.22665000       5.43114000       2.39493000      -7.30714900       7.24190400      -9.20324300      -1.42850230      -0.33481706      -0.52972115
Fe       0.02250000       5.10600000       5.27962000     -14.13230600     -31.71660300     -46.74427400      -1.03564665      -0.21345603      -1.21509299
15
Lattice="5.664536 0.0 0.0 0.0 5.664536 0.0 0.0 0.0 5.664536" Properties=species:S:1:pos:R:3:REF_forces:R:3:MACE_forces:R:3 config_type=Fe13Si1B1 REF_energy=-108.9830283 MACE_energy=-101.3941522969328 pbc="T T T"
B        0.13992000       2.30465000       0.77632000      -2.78401400      -0.82058500       0.46110900      -2.31787047      -1.55818795       0.80878757
Si       2.50353000       2.08237000       3.22653000       0.57446500       0.76610200      -0.17485000       0.10998894       0.98201594      -0.32104239
Fe       1.09387000       3.72736000       2.17845000      -2.33299800      -0.65384800       2.12861500      -1.73602164      -0.54121777       1.69808268
Fe       3.95659000       1.68198000       5.11388000       0.36857700       0.27726400       0.90410800       0.51282383       0.01347220       1.30099646
Fe       3.24055000       0.05102000       1.45794000       1.85872300       1.81044900       1.22583000       1.87100239       1.64344248       1.19825450
Fe       1.11690000       0.40651000       2.78471000       0.23956900      -0.40930100      -0.23173800      -0.18042183      -0.60653478       0.21086694
Fe       4.54933000       5.58716000       3.59286000      -0.31901000      -1.37235600       0.15251700      -0.01624756      -1.33199927       0.05003584
Fe       2.02209000       2.17177000       0.81391000       2.28654300       0.57567400       0.95002900       2.19607892       0.74877035       1.13870466
Fe       2.49600000       4.37528000       3.91048000       1.01885200       0.91593900      -0.12431400       0.60406283       0.11766277       0.31759832
Fe       1.55562000       0.82810000       4.97050000      -1.41574600      -0.55119900      -1.41023600      -1.03651538      -0.32403599      -0.85767421