1
Lattice="18.0 0.0 0.0 0.0 18.0 0.0 0.0 0.0 18.0" Properties=species:S:1:pos:R:3:REF_forces:R:3:MACE_forces:R:3 config_type=IsolatedAtom REF_energy=-3.283081 MACE_energy=-3.283081 pbc="T T T"
Fe       0.00000000       0.00000000       0.00000000       0.00000000       0.00000000       0.00000000      -0.00000000      -0.00000000      -0.00000000
1
Lattice="18.0 0.0 0.0 0.0 18.0 0.0 0.0 0.0 18.0" Properties=species:S:1:pos:R:3:REF_forces:R:3:MACE_forces:R:3 config_type=IsolatedAtom REF_energy=-0.81049333 MACE_energy=-0.81049333 pbc="T T T"
Si       0.00000000       0.00000000       0.00000000       0.00000000       0.00000000       0.00000000      -0.00000000      -0.00000000      -0.00000000
1
Lattice="18.0 0.0 0.0 0.0 18.0 0.0 0.0 0.0 18.0" Properties=species:S:1:pos:R:3:REF_forces:R:3:MACE_forces:R:3 config_type=IsolatedAtom REF_energy=-0.27559471 MACE_energy=-0.27559471 pbc="T T T"
B        0.00000000       0.00000000       0.00000000       0.00000000       0.00000000       0.00000000      -0.00000000      -0.00000000      -0.00000000
10
Lattice="9.0 0.0 0.0 0.0 9.0 0.0 0.0 0.0 9.0" Properties=species:S:1:pos:R:3:REF_forces:R:3:MACE_forces:R:3 config_type=Fe5B1Si4 REF_energy=-44.58554767 MACE_energy=-40.873050008350816 pbc="T T T"
Fe       3.50176000       8.99673000       3.09396000       0.95435000      -0.45803800       0.21474200       1.38569352      -0.21881929       0.38100918
Fe       6.43801000       1.81225000       6.74888000       1.10970900      -0.66476800      -1.17007400       0.89394379      -0.63425557      -1.58719327
Fe       2.41193000       0.16613000       4.88253000       0.30913200      -0.89996000       0.17011800       0.81930060      -0.89883853       0.05267393
Fe       8.52164000       3.22369000       0.34244000      -0.58790500      -0.47306700      -0.37861700      -0.29059192      -0.19541997      -0.35970462
Fe       5.66627000       2.92739000       3.87411000       4.77509600       2.80733600       2.40000400       4.88035141       2.67035459       2.60144285
B        5.18442000       1.13758000       3.40139000      -0.73957100       0.38065100       0.44676100      -1.62693937       0.84534169       0.45441482
Si       7.10242000       1.59600000       3.97694000       2.28029300      -3.67324000       1.18634800       1.93728903      -3.65060830       1.52642105
Si       7.70822000       8.86280000       6.25904000      -0.73207200       1.84563600      -0.48266000      -0.82163850       1.55714575      -0.51790975
Si       3.91832000       3.09724000       3.40175000      -6.85054500      -1.08983400      -1.75602400      -6.42927332      -2.11515888      -1.92188205
Si       3.63788000       6.78794000       4.49538000      -0.51848800       2.22528500      -0.63059800      -0.74813524       2.64025850      -0.62927216
10
Lattice="9.0 0.0 0.0 0.0 9.0 0.0 0.0 0.0 9.0" Properties=species:S:1:pos:R:3:REF_forces:R:3:MACE_forces:R:3 config_type=Fe5B1Si4 REF_energy=-48.18464377 MACE_energy=-46.22765570431969 pbc="T T T"
Fe       7.72908000       2.13801000       3.67226000      -0.72140700       1.38590200       0.18439100      -0.46624516       0.80413825      -0.09807949
Fe       2.56544000       0.37534000       3.55582000       0.62580800       1.02854400      -0.21951900       1.19270144       1.26468170      -0.33026462
Fe       5.84797000       2.87648000       5.04299000      -0.51992300      -1.03088200      -1.60504700      -1.08302850      -1.47949514      -0.72671753
Fe       2.00259000       1.62931000       5.21757000       0.16709900       0.68697000      -1.46342200       0.26112274       0.76005366      -1.64642375
Fe       3.04146000       3.03902000       3.03634000       2.84541400      -0.11631900       1.57660000       3.23521502      -0.31614627       1.80133030
B        4.26036000       4.67435000       3.72342000       0.68065500      -0.16735200      -1.56590600       1.03124711       0.07020407      -2.65143156
Si       6.34493000       4.18783000       3.43892000      -0.40775000      -0.06673100      -0.63978400      -0.96909999       0.38624455      -0.80478364
Si       0.98363000       2.81182000       2.85911000      -2.44913300      -1.45501500       1.18349900      -2.10742288      -1.45547682       1.42301823
Si       4.97672000       0.35177000       3.88032000      -0.44220000       1.58116100       0.17191700      -0.99387243       2.37502632       0.21118117
Si       4.49316000       6.21641000       2.06194000       0.22143900      -1.84627800       2.37727300      -0.10061736      -2.40923032       2.82217090
10
Lattice="11.0 0.0 0.0 0.0 11.0 0.0 0.0 0.0 11.0" Properties=species:S:1:pos:R:3:REF_forces:R:3:MACE_forces:R:3 config_type=Fe5B1Si4 REF_energy=-11.58855075 MACE_energy=-34.10972501275438 pbc="T T T"
Fe       8.76471000       0.00946000       6.88513000      -0.22819700       0.12237200      -0.55543600      -0.00000000      -0.00000000      -0.00000000
Fe       2.63377000       1.33277000       3.45207000      -0.77576300      -0.08136400      -0.00027500      -0.56013503      -0.10649174      -0.31875491
Fe       9.34605000       7.55219000       3.04608000      -1.57311900      -1.03473800      -0.15487700      -0.96519759      -0.61245276       0.00450598
Fe       6.36389000       7.12183000       3.09324000       1.09683100       0.04242100      -0.12816300       1.34111934       0.19351796      -0.02120900
Fe       1.35866000       0.14865000       4.85122000       1.24564900       1.43265900      -2.24078300      -0.34865453       0.42621003      -1.00288462
B        0.74424000       4.87887000       2.93866000      -1.13359500      -0.78566000      -1.94809000      -0.69759688      -0.71904238      -2.23203414
Si       0.41110000       1.07145000       2.73658000       1.34178700       0.50456200      -0.25058800       0.68021835       0.97253989      -1.01910184
Si       0.39736000       3.73439000       0.50956000      -1.07905800      -1.52336200       2.18566600      -0.88893393      -1.37056137       3.11390346
Si       9.29283000       2.08457000       0.89045000       2.55214100       0.43757800       0.40081500       2.94421232       0.78327123       0.73762523
Si       2.63700000       1.37373000       1.21644000      -1.44667700       0.88553200       2.69173100      -1.50503206       0.43300914       0.73794984
10
Lattice="11.0 0.0 0.0 0.0 11.0 0.0 0.0 0.0 11.0" Properties=species:S:1:pos:R:3:REF_forces:R:3:MACE_forces:R:3 config_type=Fe5B1Si4 REF_energy=-38.14997444 MACE_energy=-39.48796357431894 pbc="T T T"
Fe       0.55560000       8.19331000       7.06229000       0.60700700      -1.87987400       0.40247700       0.12206771      -0.50201791       0.25806956
Fe       0.49601000       2.54487000       7.78872000      -1.62914400       1.44061600       0.72816300      -1.49394226       1.44462056       0.60086743
Fe      10.07332000       3.88379000       9.42053000       1.49055100       0.96476400      -0.05327700       1.22713833       1.47430483       0.51089427
Fe       4.45932000       9.07691000       6.11289000       0.24660800      -0.52821700      -0.02378300       1.03507864      -1.20909726       0.04316011
Fe       9.54221000       0.53076000       0.28158000      -0.51209300       1.49842300      -0.39218500      -0.61964260       1.33004051      -0.24933493
B       10.69505000       5.70310000       8.40523000       0.71876200      -1.05034900      -0.26069900       0.80280984      -2.09675227      -0.53709564
Si       9.01619000       3.31434000       7.76349000       0.22101700      -0.39376100      -0.82483600       0.39406886      -0.08628956      -0.69829693
Si       1.50005000       6.10934000       7.36041000      -1.47354600       0.22179200       0.82993100      -1.64250752      -0.31479040       0.87303156
Si       8.29851000       3.23195000      10.75936000       1.25238600      -0.70606300      -0.69191000       1.50054369      -0.97488155      -0.87138223
Si       3.13187000      10.62875000       6.05729000      -0.92154800       0.43266900       0.28612000      -1.32561470       0.93486304       0.07008680
10
Lattice="11.0 0.0 0.0 0.0 11.0 0.0 0.0 0.0 11.0" Properties=species:S:1:pos:R:3:REF_forces:R:3:MACE_forces:R:3 config_type=Fe5B1Si4 REF_energy=-39.54850766 MACE_energy=-41.58743910070469 pbc="T T T"
Fe       7.32260000       2.25273000       9.60151000      -0.81068000       1.95759200       1.52424100      -0.79603585       1.66504064       1.47040524
Fe       5.30456000       3.18059000       0.62935000       3.59407800       0.60301100       0.45004200       3.85244809       0.58070521       0.17754454
Fe       5.70290000       5.32015000      10.23784000      -0.55638700      -0.41691100      -0.58631200      -0.80508472      -1.12423893       0.00203085
Fe       7.71673000       4.32859000       0.10409000      -1.51783000      -0.48364700      -0.94636500      -1.47706580      -0.96138916      -0.74592952
Fe       5.73415000       7.17747000       8.80515000      -0.19559000      -2.26799700       1.43769300      -0.51837057      -0.94366819       0.54874566
B        3.53335000       2.44513000       3.14396000       1.80602500       1.42469000       1.46529900       2.18921394       0.95164058       1.68781370
Si       3.05847000       4.99331000       9.56994000       1.58460600       0.22347600       0.29443400       1.89746121      -0.16460954       0.84585352
Si       4.66874000       2.05360000       5.35076000      -1.23296500       0.33348000      -2.53096100      -1.66582928       0.51151535      -3.15482291
Si       3.35109000       3.37679000       0.23198000      -2.51854700       0.79060000      -0.76406600      -2.72215474       1.07685125      -0.42263524
Si       4.02675000       4.41289000       2.41329000      -0.15270900      -2.16429400      -0.34400600       0.04541773      -1.59184722      -0.40900583
10
Lattice="11.0 0.0 0.0 0.0 11.0 0.0 0.0 0.0 11.0" Properties=species:S:1:pos:R:3:REF_forces:R:3:MACE_forces:R:3 config_type=Fe5B1Si4 REF_energy=-30.22050192 MACE_energy=-40.1695106601753 pbc="T T T"
Fe       7.51027000      10.11418000       2.18625000      -1.69790900       1.72973200      -1.19644900      -0.86828597       2.48494369      -0.63136240
Fe       6.52329000       1.24583000       0.98294000       2.87583100      -1.88416600       0.59355300       2.06180447      -0.37197934       1.66618922
Fe       8.50320000       0.98219000       3.23617000       1.14940800      -1.93965800      -1.01181700       0.65747276      -3.22585071      -2.51451763
Fe       8.81725000       8.60479000       1.96311000       1.70133000      -1.33465300       0.85149000       1.25098325      -1.06796179       0.41611052
Fe       9.16079000       2.26416000       1.64872000      -0.92180800       1.06168500      -1.01542500      -1.31960485       0.50990956      -0.58781487
B        8.94441000       4.16897000      10.47399000      -1.12511400       0.54375800       0.63670800      -0.95985435       0.52747402       0.38095255
Si      10.42398000       4.23416000       1.05026000      -1.52480000      -0.05410100      -1.01659500      -1.68143224      -0.35836423      -1.47344414
Si       7.56198000       2.31002000       4.34386000      -1.29363800       1.80115300       0.97958300      -1.30152709       2.00366895       0.79362277
Si       8.52672000       8.61906000      10.86161000      -0.94443500       0.65405000      -0.31886100      -0.40350547       0.46558814       0.20151551
Si       6.81456000       4.96874000       9.06450000       1.78113500      -0.57779900       1.49781200       2.56394948      -0.96742829       1.74874846
10
Lattice="11.0 0.0 0.0 0.0 11.0 0.0 0.0 0.0 11.0" Properties=species:S:1:pos:R:3:REF_forces:R:3:MACE_forces:R:3 config_type=Fe5B1Si4 REF_energy=-36.59236839 MACE_energy=-42.69153269572541 pbc="T T T"
Fe       3.58274000      10.79851000      10.73667000       0.11897900       0.22630100      -0.04976800      -0.00000000      -0.00000000      -0.00000000
Fe       1.22875000       2.49300000       7.21708000       2.26097500      -1.53625800       1.07649700       2.32252365      -1.55444174       1.44552984
Fe       0.83190000       3.93076000       3.48688000       1.35086000      -1.69250200       0.45489600       1.25241982      -1.68928061       0.05549864
Fe       9.39560000       2.93064000       6.23859000      -2.27414300      -0.91782300      -0.86979000      -2.81034508      -0.73874458      -1.49771620
Fe       1.68648000       4.78764000       5.33563000      -2.42207400      -1.78775100      -0.34755700      -1.50467645      -1.21549999       0.55924354
B        0.09146000       3.23421000       6.27209000       0.33374200       3.18943500      -3.08739300       0.06334780       3.26166141      -3.82298954
Si      10.14804000       1.29848000       4.70398000      -0.27194000       2.69997500       0.88966000       0.35459499       2.51230710       1.09720312
Si       7.91960000       4.68330000       6.38399000       1.00571800      -0.89791700      -1.90531900       1.13632626      -0.81692443      -1.93677955
Si       7.87407000       3.80560000       3.83659000       1.69436900       0.65761100       2.09344900       1.92013619       0.57584991       2.40648858
Si      10.18862000       4.97429000       4.13294000      -1.79648600       0.05892800       1.74532400      -2.73432719      -0.33492707       1.69352158
10
Lattice="11.0 0.0 0.0 0.0 11.0 0.0 0.0 0.0 11.0" Properties=species:S:1:pos:R:3:REF_forces:R:3:MACE_forces:R:3 config_type=Fe5B1Si4 REF_energy=-37.97135349 MACE_energy=-38.27654239532066 pbc="T T T"
Fe       9.03194000       7.52207000       3.76953000      -0.41692800       1.06213800       1.36215600       0.11391186       1.20661279       0.86761467
Fe      10.13763000      10.16701000       4.97367000      -1.48414600      -0.40832500      -0.11078200      -0.71339234      -1.09857426      -0.26725115
Fe       4.72985000       7.86062000       7.54580000      -0.46341600      -0.84233600       0.25668000      -0.58904090      -1.02222908      -0.29555341
Fe       8.27206000       8.93115000       5.41966000       2.10203900       0.88604100      -1.49179500       0.78819379       0.87610067      -1.05222427
Fe       4.77388000       2.87329000       5.35297000      -0.27504900      -0.53922100      -0.84728100      -0.93200575      -0.44256645      -1.28437059
B        4.61354000       3.86066000       6.74103000      -0.14362800      -0.14915200      -1.57005500      -0.52420423       1.19456106       0.91638595
Si       1.64433000       3.13639000       3.91354000       3.75707800      -0.87803400      -0.36408100       5.12001626      -1.21018677      -1.42654479
Si       3.74801000       5.66030000       6.94882000       0.45210300       0.36957600       0.68487900       1.06026721       0.35224553       0.19812930
Si       8.69515000       0.60160000       4.24738000      -0.18983800      -0.10747800       0.51028900      -0.08924047      -0.84613446       0.47494093
Si      10.87890000       3.62141000       4.73344000      -3.33821400       0.60679200       1.56999000      -4.23450543       0.99017097       1.86887336
10
Lattice="11.0 0.0 0.0 0.0 11.0 0.0 0.0 0.0 11.0" Properties=species:S:1:pos:R:3:REF_forces:R:3:MACE_forces:R:3 config_type=Fe5B1Si4 REF_energy=-19.85588119 MACE_energy=-32.98041383319269 pbc="T T T"
Fe       0.38446000       1.64586000       0.19247000      -0.31544900       0.99906300      -1.16531000      -0.36053299       0.11384490      -0.84513528
Fe       4.73202000       7.12132000       7.31276000       0.31929800      -0.23556100       1.39875500       0.15625619       0.50649840       1.67246429
Fe       0.36789000       2.73674000       6.71847000       0.18431700      -0.99436400      -3.07194200      -0.24577344      -0.83762130      -2.35843061
Fe      10.07665000       2.07009000       8.11408000      -1.05625300       0.13475800      -0.04421700      -0.80321700      -1.01776911       0.92805564
Fe       0.10300000      10.83360000       4.98934000      -0.79988200       1.03958000       0.82376600      -0.85222971       1.38569386       0.55172386
B        9.83138000       1.34479000       5.59342000       2.73003300      -1.60069300       1.71860100       2.66220307      -0.25045226       2.52824712
Si       8.95511000       2.30296000       4.33786000      -0.13907800       0.36771900       0.11506400      -0.40044992       0.60630390      -0.80446073
Si       3.99539000      10.22212000       8.61506000      -0.05248500      -0.48071600       0.18941400       0.28545680      -1.20281766      -0.50668820
Si       2.69021000       5.15166000      10.73011000       1.27722300       0.17680000       0.10453800       1.78006556       0.19768239      -0.40423419
Si       5.75937000       5.49395000      10.03068000      -2.14772600       0.59341400      -0.06866800      -2.22177855       0.49863687      -0.76154190
10
Lattice="9.0 0.0 0.0 0.0 9.0 0.0 0.0 0.0 9.0" Properties=species:S:1:pos:R:3:REF_forces:R:3:MACE_forces:R:3 config_type=Fe5B1Si4 REF_energy=-45.52219027 MACE_energy=-46.82605360370553 pbc="T T T"
Fe       5.95652000       4.23215000       1.06155000      -0.98767900      -0.50029400      -0.25142400      -0.66117650      -0.48213304      -0.99292058
Fe       5.13270000       1.30654000       4.87525000      -1.02972800       1.07694500      -1.04271400      -1.22037657       1.19628010      -1.12965362
Fe       0.86010000       2.84042000       4.86982000       1.78090900      -0.14036100      -0.68290200       1.19783225       0.04556366      -0.35915522
Fe       4.80846000       2.20734000       0.33653000      -0.70934400       1.79820400       0.47599400      -0.72336428       1.28217610       0.07199005
Fe       4.84818000       3.73073000       2.87016000      -1.11599800      -1.47444400      -2.61602900      -1.24449113      -0.86620769      -2.26923695
B        3.56051000       3.01373000       4.13091000      -3.27582500      -2.90917300      -1.74282900      -1.63209913      -2.62460339      -1.33007270
Si       3.41138000       1.28778000       2.26512000       0.95707700       2.37405100       0.97860500       1.15318215       2.45034294       0.72802382
Si       5.16668000       2.63723000       6.68984000       0.07413900      -1.78642600       3.36318600      -0.07380801      -0.95083682       2.89254883
Si       3.08125000       3.86721000       0.97989000       1.93930500      -1.04831500       0.87154200       2.16028142      -1.20608711       1.25763474
Si       4.99984000       3.77363000       4.95280000       2.36714300       2.60981200       0.64657100       1.04401981       1.15550525       1.13084162
10
Lattice="11.0 0.0 0.0 0.0 11.0 0.0 0.0 0.0 11.0" Properties=species:S:1:pos:R:3:REF_forces:R:3:MACE_forces:R:3 config_type=Fe5B1Si4 REF_energy=-40.7418507 MACE_energy=-37.13207314764166 pbc="T T T"
Fe       5.85212000       3.50546000       5.08734000       2.15677100      -0.79414500      -0.20894700       1.19650961      -0.73268626       0.34990450
Fe       4.00684000       5.71103000       1.22208000       0.17321900       0.19260900       1.30384500       0.17897623       0.41647337       1.63673160
Fe       8.00148000       8.34774000      10.98030000      -0.08363800      -0.04550400       0.02901100      -0.00000000      -0.00000000      -0.00000000
Fe       7.35073000       2.40140000       6.64128000       0.77906300       1.12479900      -0.71056100       1.42779543       1.35833895      -0.93784337
Fe      10.15241000       4.26124000       5.16236000      -1.21868700      -1.07976300       1.03424500      -2.13754791      -1.11568609       1.48404966
B        7.50939000       3.71850000       4.30627000       0.81775400       0.01191000       1.18846500       1.08015871       0.02212623       1.30357525
Si       0.88259000       3.63568000       4.13155000       0.18457900       0.08807600       0.63549900       1.39167931       0.09736995       0.17263687
Si       4.29968000       6.34926000       4.01086000      -0.04470200      -1.65685100      -0.27530200      -0.18081613      -2.34280984      -0.55540388
Si       3.89182000       4.30839000       5.36988000      -1.81091900       1.59107900      -0.75492800      -1.59446321       1.81203440      -1.34661640
Si       9.83466000       2.97427000       7.53103000      -0.95344000       0.56779200      -2.24132700      -1.36229204       0.48483927      -2.10703424
10
Lattice="9.0 0.0 0.0 0.0 9.0 0.0 0.0 0.0 9.0" Properties=species:S:1:pos:R:3:REF_forces:R:3:MACE_forces:R:3 config_type=Fe5B1Si4 REF_energy=-42.65563223 MACE_energy=-45.31844573390602 pbc="T T T"
Fe       5.47398000       6.28103000       3.23251000       0.28355300       0.05833700       0.13117200      -0.12444332       0.06203704      -0.26326621
Fe       3.48819000       2.94480000       4.89866000      -0.87509200      -0.04370600       2.15230300      -0.89271601       0.43253384       0.61533484
Fe       8.33854000       1.27421000       2.74786000      -0.46364400       1.92715600       1.33564000      -0.65249370       1.55565917       1.46082992
Fe       6.99962000       2.76087000       4.14267000      -0.44746500       1.63766400       1.88762100      -0.91055287       1.43593342       2.54747608
Fe       1.77962000       3.26723000       3.35280000      -0.52218800      -0.67489800       0.43259300       0.44015707      -0.54017250       0.62150568
B        4.62666000       4.86714000       2.55939000       0.26614600      -1.03752000       0.98811100      -0.47334720      -2.11601383       1.35511861
Si       4.18354000       2.39378000       2.99079000       0.43795500       1.50930000      -2.71878500       0.22942688       1.22703675      -1.29258258
Si       8.55432000       3.88894000       3.61944000       3.24804800       2.01892900      -1.57919700       3.32307585       1.42369625      -1.79227432
Si       5.93563000       1.17498000       3.69373000      -1.91994400      -5.30800600      -1.48876300      -1.44045687      -3.51714717      -1.63672822
Si       0.45419000       2.68863000       5.46192000      -0.00736800      -0.08725600      -1.14069400       0.50135016       0.03643702      -1.61541380
10
Lattice="11.0 0.0 0.0 0.0 11.0 0.0 0.0 0.0 11.0" Properties=species:S:1:pos:R:3:REF_forces:R:3:MACE_forces:R:3 config_type=Fe5B1Si4 REF_energy=-34.53347477 MACE_energy=-35.81121613312597 pbc="T T T"
Fe      10.38446000       0.44273000       4.17388000      -0.78237800      -1.86098300       1.10984900      -0.64839496      -2.07681178       1.45007972
Fe       5.58579000       5.13476000       2.28318000      -1.35183300       0.99168200      -0.54319900      -1.02861487       0.04272241       0.45017469
Fe      10.26893000       9.29847000       6.65501000       0.41344200       0.04548900      -2.04786900       0.27631122       0.09973198      -2.55942392
Fe       8.86095000       8.11141000       4.18070000       1.29133000       1.24914000       1.04926000       1.63889492       1.26968261       1.18457875
Fe       7.69214000       0.53975000       5.12514000       1.95509500      -0.60911200      -1.00813900       1.49335229      -0.34106620      -0.43812602
B        2.74748000       4.83778000       0.91630000       1.39196400      -0.12393600      -0.20196400       0.64550137       0.10927081       0.57822256
Si       6.81162000       1.90994000       1.53462000      -0.52184800       1.18261600      -0.41056100      -0.65222649       2.26941342      -0.67800493
Si       6.12115000       4.10888000       0.52255000       1.58173000      -1.75162600       1.46051100       0.73080605      -2.51534854      -0.25108431
Si       0.91081000       9.09353000       4.86613000      -2.08485700       0.69467200       0.51855400      -2.76118545       1.05005360       0.35872040
Si       4.16380000       4.58033000      10.67633000      -1.89264600       0.18205800       0.07355800       0.30555590       0.09235170      -0.09513694
10
Lattice="11.0 0.0 0.0 0.0 11.0 0.0 0.0 0.0 11.0" Properties=species:S:1:pos:R:3:REF_forces:R:3:MACE_forces:R:3 config_type=Fe5B1Si4 REF_energy=-31.88716106 MACE_energy=-38.623383180930176 pbc="T T T"
Fe       1.14116000       9.49468000      10.94139000       1.03161900      -0.44995100      -0.39877100       0.71279293      -0.82041535      -0.50834362
Fe       7.21367000       6.98307000       4.70883000      -2.94301400      -1.46688800       0.65014200      -1.96021941      -0.13956215       0.04772667
Fe       4.99485000       7.56523000       3.28858000       0.74465000      -0.23543700      -0.70888800       0.85641912      -0.52655649      -0.23025072
Fe       5.11075000       7.78078000       8.02245000      -0.73545200      -0.54142400       0.97332500      -0.98141850      -1.09809805       0.74962911
Fe       5.02580000       6.08327000       6.14288000       1.53107200       2.07986600      -0.44355300       1.03810832       1.59471613      -0.68012808
B        6.46739000       9.52531000       1.42776000      -0.83213000      -0.78314200       0.21534400      -1.27488700      -1.15527653       0.20950580
Si       3.36056000       5.78054000       9.88043000      -0.35408900       0.86759200       0.70337500      -0.25785582       2.24594887       0.74995943
Si       3.68875000       6.60974000       1.41965000       0.14004300       0.02695200      -1.00259500       0.51688879       0.42514503      -0.59674378
Si       3.95884000       8.08391000      10.56775000       0.21456400       0.93303900      -0.26874100      -0.43845865      -0.19718779      -0.84136202
Si       1.56076000       7.66233000       9.57449000       1.20273800      -0.43060700       0.28036300       1.78863022      -0.32871366       1.10000720
10
Lattice="11.0 0.0 0.0 0.0 11.0 0.0 0.0 0.0 11.0" Properties=species:S:1:pos:R:3:REF_forces:R:3:MACE_forces:R:3 config_type=Fe5B1Si4 REF_energy=-2.43842541 MACE_energy=-42.315298206228476 pbc="T T T"
Fe       8.11536000       3.96737000       6.09845000       2.52379000       3.39438000      -0.10855200       3.10074945       3.25916960      -0.44891339
Fe       4.00538000       4.00868000       8.30741000       1.03860200       0.49749300      -0.86210200       0.60368517      -0.20263097      -0.58406597
Fe       6.21734000       5.49238000       4.54674000      -1.90078500      -0.53233000       2.45773000      -3.01640108      -1.88930172       1.51025127
Fe       6.37295000       3.21617000       6.01003000      -4.31429000      -0.62928100      -0.35144300      -4.79395881      -0.27855734      -0.80688567
Fe       4.28107000       3.14598000       4.09228000       1.68301600       0.43320300       1.57416800       1.51987578       0.82417527       0.92009809
B        8.65122000       7.09833000       7.78974000      -0.81588400      -0.96711600      -2.45875700       0.00877726      -0.32242655      -0.57055858
Si       8.15838000       5.95236000       4.46257000       2.65955200       1.43037300       0.95638300       3.18719171       0.56895429       1.27156122
Si       7.04021000       6.67768000       6.73922000       0.09201500      -1.71899800      -1.45860000      -0.10742715      -1.16562767      -1.26125685
Si       9.92269000       6.79012000       6.33039000      -1.33422700      -1.06385500      -1.26044000      -0.72456937      -0.46566395      -0.38095474
Si       6.58826000       7.17809000       3.12641000       0.36821200      -0.84387000       1.51161300       0.22207703      -0.32809096       0.35072461
10
Lattice="6.0 0.0 0.0 0.0 6.0 0.0 0.0 0.0 6.0" Properties=species:S:1:pos:R:3:REF_forces:R:3:MACE_forces:R:3 config_type=Fe5B1Si4 REF_energy=-53.79328822 MACE_energy=-51.297577911156544 pbc="T T T"
Fe       0.50996000       2.31585000       5.10298000      -1.26599000      -0.50951400      -1.36914100      -1.37544133       0.01610745      -1.03043099
Fe       4.41281000       4.39623000       3.51801000       2.05066400       2.95138500      -2.14682400       1.81732014       2.49697980      -2.75925263
Fe       1.31233000       5.37312000       2.96679000      -9.66985400       0.21848200       6.64889800      -7.54989217       0.07109655       5.79268862
Fe       5.30196000       5.42046000       5.41384000       1.20364700       0.82237100      -1.12375000       1.05483352       0.59955480      -1.01730394
Fe       2.97556000       4.92730000       5.11455000      -0.79718400       0.13310700       0.96147400      -0.79336917      -0.30866978       0.56786119
B        5.46078000       0.52907000       3.64926000      -0.06089300       0.25590500       0.66478200      -0.15157889       0.14167640       0.14831427
Si       2.81628000       5.37752000       2.00180000       6.85751800      -0.72904200      -5.53711500       5.76255345       0.09379512      -3.93346690
Si       3.67557000       2.72706000       4.43876000      -0.82806600      -3.20205400       1.23328500      -0.61868705      -2.73889086       0.87641791
Si       4.50462000       4.23004000       1.13387000       0.98654700      -1.71437000      -0.38631400       0.85815638      -1.45071556      -0.11920845
Si       3.47649000       1.50306000       2.12993000       1.52361000       1.77373100       1.05470500       0.99610513       1.07906608       1.47438093
10
Lattice="12.0 0.0 0.0 0.0 12.0 0.0 0.0 0.0 12.0" Properties=species:S:1:pos:R:3:REF_forces:R:3:MACE_forces:R:3 config_type=Fe5B1Si4 REF_energy=-45.66921287 MACE_energy=-42.04340496015048 pbc="T T T"
Fe       4.03767000       2.41086000       6.51410000       1.86803300       0.00585300       0.51063200       2.35792510      -0.52889149       0.42895953
Fe       4.79727000      11.75927000       9.09533000       0.54049700       0.45513700      -1.32376800       0.04577367       0.10257177      -0.19428418
Fe       5.80034000       0.20229000       7.24671000      -0.98588000       0.20802500       0.94137200      -0.80030366       0.85432630      -0.19387729