15
Lattice="5.664536 0.0 0.0 0.0 5.664536 0.0 0.0 0.0 5.664536" Properties=species:S:1:pos:R:3:REF_forces:R:3:MACE_forces:R:3 config_type=Fe13Si1B1 REF_energy=-108.19731369 MACE_energy=-105.64400593362328 pbc="T T T"
B        4.05901000       2.70568000       1.01305000      -1.63855300      -0.82904000       0.73367400      -1.38852070      -0.90278656       0.35073894
Si       2.82856000       0.10655000       3.62968000      -1.37485700       1.04288500       1.12851000      -1.61588337       1.53253664       1.66311388
Fe       2.58297000       1.18377000       1.20948000       0.93367000       0.14656100       0.38941200       1.41184870      -0.42940616      -0.11705578
Fe       0.38153000       0.68989000       3.08804000       0.88723900       3.84366500       0.15858400       0.48633500       3.41607350       0.68020079
Fe       1.54589000       2.38203000       4.72041000      -2.07199500      -0.40415400      -0.21731400      -2.23667042      -1.13738782      -0.43694717
Fe       0.00965000       3.55673000       0.57847000       1.87002200       0.46818400      -0.57360300       1.42244516       0.54083698      -0.32683490
Fe       4.86453000       2.71686000       2.75028000       1.57660800      -1.70083300       1.51404400       1.20178818      -1.73825623       1.47268303
Fe       4.62966000       0.98828000       5.06676000       0.07922500       1.31640700       1.29952100      -0.22954364       0.95465963       0.58468108
Fe       0.62475000       4.47163000       2.76945000       1.95380600      -3.21231900      -1.53544400       2.20137098      -2.67706768      -1.27127933
Fe       4.87774000       4.67993000       4.41653000      -0.64493200      -0.53503200       0.30435400      -0.20159365      -0.76788020       0.26527490
Fe       3.59664000       2.87221000       4.83153000       0.23532500      -0.37357900      -1.60523300       0.46960136       0.20196334      -1.26146440
Fe       0.66156000       0.50203000       0.73880000      -0.79576700      -0.85035100      -0.29863700      -1.13296803      -0.51881028      -0.08343148
Fe       2.16986000       4.37529000       0.15492000      -0.00013300       0.94038800       0.69583500       0.47120173       0.98108167       0.38918475
Fe       3.84648000       4.71531000       2.05312000       0.75417200       0.77170900      -2.19861800       1.33200075       1.12668644      -2.38389453
Fe       2.60819000       2.98871000       2.55518000      -1.76382900      -0.62449100       0.20491400      -2.19141204      -0.58224327       0.47503022
15
Lattice="5.664536 0.0 0.0 0.0 5.664536 0.0 0.0 0.0 5.664536" Properties=species:S:1:pos:R:3:REF_forces:R:3:MACE_forces:R:3 config_type=Fe13Si1B1 REF_energy=-108.15566798 MACE_energy=-104.90704775101338 pbc="T T T"
B        4.14873000       2.95379000       1.06658000       0.16200100      -0.29917000      -0.39394100       0.30683261      -0.30392364      -0.78474160
Si       3.70970000       1.75376000       4.70342000       2.39954500       1.99334400       0.69658000       2.37485247       1.85402568       0.76645269
Fe       0.77141000       5.48369000       0.61772000       0.15863900      -0.70463600       0.73580300       0.21623193      -1.02525019       0.79246515
Fe       2.70222000       5.62328000       2.66112000      -2.84701800       1.11988600      -2.77526600      -2.63413776       1.37341252      -2.40978292
Fe       2.40590000       1.49012000       0.76033000       2.44811900      -1.09619800       2.05304000       2.15777978      -0.73431442       1.97253944
Fe       0.05981000       0.25678000       4.08407000      -0.72088300      -0.40435400      -1.12965000      -0.53481417      -0.13882110      -1.34231958
Fe       2.69016000       5.46683000       4.60121000      -0.81406600      -1.20768000       2.79556400      -0.51160620      -1.10477863       2.46205217
Fe       1.47386000       1.76151000       4.03878000       0.25632200       2.31886200      -0.70750300       0.05418218       2.26652266      -0.66680090
Fe       5.58209000       3.47185000       2.53703000       2.04828400       0.56513400      -0.37619200       2.72611023       0.68278047       0.38255814
Fe       2.39981000       3.74553000       0.37431000      -0.23425500       0.56240000       0.37900500      -0.31172573       0.09211528       0.31307756
Fe       4.35312000       1.55651000       2.64463000       0.99871600      -1.26274600      -2.03362100       0.98157038      -1.56920690      -1.81068272
Fe       4.71996000       4.32124000       4.97431000      -0.09930100      -2.16645100       0.36829600      -0.60791532      -2.63924191       0.00977096
Fe       4.35696000       5.05523000       1.41829000       0.42683500       0.31250100      -0.90165400       0.73262397       1.10755721      -0.86807647
Fe       0.47139000       2.05266000       0.60057000      -2.75315200       0.98470800      -0.10508100      -2.95796648       1.41357418      -0.25979430
Fe       3.41003000       3.62129000       2.91823000      -1.42978400      -0.71560000       1.39462200      -1.99201790      -1.27445121       1.44328238
15
Lattice="5.664536 0.0 0.0 0.0 5.664536 0.0 0.0 0.0 5.664536" Properties=species:S:1:pos:R:3:REF_forces:R:3:MACE_forces:R:3 config_type=Fe13Si1B1 REF_energy=-107.93807169 MACE_energy=-104.32678195327065 pbc="T T T"
B        3.89991000       3.42526000       0.45422000       0.11547000      -0.03553900       1.12451100       0.50727776      -0.15458899       1.48554914
Si       3.48762000       0.16630000       4.61337000       0.32574800       0.46308000      -0.01786500      -0.41315917       1.11993324       0.05634003
Fe       2.84778000       1.82037000       0.82228000      -0.98232500      -1.42221600      -1.89337000      -1.67409571      -1.32406939      -2.12172236
Fe       1.34857000       0.81784000       2.30075000      -0.53643500       0.46265000      -1.19653800      -0.32434774       0.82330270      -1.13463735
Fe       1.57642000       1.26355000       4.33118000       0.04619000       0.17232100       0.29400800       0.63187742       0.49618958       0.38565968
Fe       0.65713000       2.94926000       0.95396000      -1.72120200      -1.22782100       0.66296100      -1.74419963      -1.41742984       0.67508527
Fe       4.05988000       1.97076000       2.38888000       1.24013900      -1.25976700       1.55714700       1.58234971      -1.85652151       1.76954947
Fe       5.41523000       1.91313000       4.86891000      -2.57043500      -0.52568200      -0.40262900      -2.43377695      -0.34959174      -0.09616642
Fe       1.35795000       4.61467000       3.62292000      -1.17710100      -0.19986100       1.26666800      -1.20289194      -0.05264012       1.07538069
Fe       4.95776000       4.27854000       4.85033000       2.20080800       0.77958800      -0.24901600       2.39512210      -0.03443972      -0.35255753
Fe       2.90817000       3.15860000       4.25698000      -0.87756600      -0.39846100       1.25184100      -0.73492268      -1.01034402       1.17798214
Fe       4.97903000       5.64594000       1.36431000      -0.69131800      -0.04726100      -0.44322300      -0.57947534       0.17999717      -0.57035146
Fe       1.21860000       5.04312000       0.28941000      -0.01329800       1.97019200      -1.42146800       0.16520017       2.14040325      -1.65126042
Fe       4.19049000       3.99341000       2.69223000       2.99720200       1.59092800      -0.45710200       2.52490292       1.94046787      -0.45533916
Fe       2.24232000       4.14646000       1.80095000       1.64412400      -0.32215200      -0.07592500       1.30013908      -0.50066847      -0.24351173
15
Lattice="5.664536 0.0 0.0 0.0 5.664536 0.0 0.0 0.0 5.664536" Properties=species:S:1:pos:R:3:REF_forces:R:3:MACE_forces:R:3 config_type=Fe13Si1B1 REF_energy=-111.97852358 MACE_energy=-109.56973959846212 pbc="T T T"
B        0.06916000       5.66432000       5.18689000       0.12008200      -0.64043800       0.01360000       0.21126190      -1.01153445       0.11443294
Si       0.02740000       2.72248000       2.59682000      -0.95092500       0.36379500       0.29566700      -0.86114568       0.52442069       0.54282560
Fe       0.14116000       5.54768000       2.85133000       0.08282300      -0.00674100       0.52027800      -0.31517975       0.20886507       0.06920508
Fe       5.56722000       2.97052000       5.53670000      -0.67309900       0.24460700       0.18564600       0.17732379       0.20210582       0.06872912
Fe       2.56501000       0.00405000       5.40440000       0.68434000      -0.27592000       0.60718700       0.67175837      -0.32403719       0.59643048
Fe       2.97079000       2.77487000       5.60913000       0.61990200      -0.30745300       0.59180600      -0.26491366      -0.13555868      -0.02788692
Fe       3.14055000       2.58779000       2.39876000      -0.26535600       0.46856000       0.15364600      -0.78676440       0.27722289       0.55896076
Fe       1.27023000       1.29362000       1.29220000       0.59662900      -0.36144800      -0.82067800       0.43095548      -0.42336479      -0.76941635
Fe       1.26884000       1.40412000       4.24821000      -0.00500300       0.79776500      -0.57479700       0.31076083       1.17545018      -0.59485884
Fe       1.43809000       4.26211000       1.36341000       0.07769500      -0.05884300      -0.22592600       0.19980120      -0.01809951      -0.20949016
Fe       1.52070000       4.14480000       4.13170000      -0.18321100      -0.27105400      -0.71528600      -0.18646842      -0.66236972      -0.56916034
Fe       4.46936000       1.09579000       0.98330000      -0.11971100       0.01004100       0.24750400       0.11200658       0.01287523       0.15440107
Fe       4.16783000       1.22547000       4.11325000       0.42899800      -0.08684700      -0.08842400       0.42569447      -0.03062213       0.07275108
Fe       4.22673000       4.46813000       1.30140000       0.09689500      -0.37725000      -0.41990000       0.12078410      -0.18432937      -0.18759806
Fe       4.20815000       4.21553000       4.01300000      -0.51005900       0.50122500       0.22967700      -0.24587480       0.38897596       0.18067454
15
Lattice="5.664536 0.0 0.0 0.0 5.664536 0.0 0.0 0.0 5.664536" Properties=species:S:1:pos:R:3:REF_forces:R:3:MACE_forces:R:3 config_type=Fe13Si1B1 REF_energy=-111.93959828 MACE_energy=-109.32489737593575 pbc="T T T"
B        0.52210000       0.05440000       5.04153000      -0.83789800      -0.96014800      -0.42271900      -0.53147969      -0.67041219      -0.74494358
Si       5.59498000       2.75302000       2.63746000      -0.41285400      -0.16722200       0.32382300      -0.20430753      -0.30553045       0.27415158
Fe       0.17766000       0.05624000       2.77011000      -0.22089500       0.44737300       1.17937900      -0.38672662      -0.03986236       0.81066634
Fe       5.59682000       2.78032000       5.61495000      -0.22239300       0.41310500      -0.03657000      -0.27280005       0.40205084      -0.60676984
Fe       2.71989000       5.37982000       5.43745000       0.17724800       0.17436200       0.47840000      -0.22107537       1.09295614       0.21292681
Fe       2.70157000       2.72483000       5.65192000       0.89303700       0.73165300       0.81071700       0.78904930       0.37802214       0.51661463
Fe       2.97278000       2.68063000       2.60608000       0.64664100       0.39382500      -0.89779500       0.64984969       0.63470002      -0.88637363
Fe       1.04462000       1.15381000       0.98518000       0.85892600      -0.28038300       0.02628300       1.10690021       0.15597861       0.58536584
Fe       1.65813000       1.50296000       3.98982000      -0.38663100      -0.26210300      -0.11433700      -0.54942551      -0.34910617       0.18411867
Fe       1.30631000       4.30849000       1.24352000      -0.41412900       0.11159100       0.24697100      -0.14103789      -0.27510265       0.29435709
Fe       1.58576000       4.06734000       3.99489000      -1.17533100      -0.00634600      -0.85725300      -0.90535098      -0.04412851      -0.65188972
Fe       4.12820000       1.13618000       1.10587000       0.62554700       0.31979100       0.22031500       0.34205256       0.20549258       0.40501765
Fe       4.25787000       1.24949000       4.17529000      -0.08913900      -0.07677300       0.23295600       0.17302701       0.17479064       0.16617773
Fe       4.35495000       4.45297000       1.34581000      -0.13361000      -0.53467800      -0.51744000      -0.28911763      -0.69030098       0.02871904
Fe       4.41108000       4.43949000       4.32316000       0.69148200      -0.30404700      -0.67272800       0.44044250      -0.66954767      -0.58813863
15
Lattice="5.664536 0.0 0.0 0.0 5.664536 0.0 0.0 0.0 5.664536" Properties=species:S:1:pos:R:3:REF_forces:R:3:MACE_forces:R:3 config_type=Fe13Si1B1 REF_energy=-111.86184603 MACE_energy=-107.7880211768419 pbc="T T T"
B        1.50863000       1.78767000       4.90152000      -0.44122900      -0.13378600       0.30200900      -0.02035602      -0.17238546       0.21355512
Si       4.79549000       2.24346000       2.10133000      -2.02834800      -2.06166200      -2.37230900      -2.44011877      -1.85509717      -2.18380405
Fe       3.20380000       0.75276000       3.12970000      -0.26094900      -0.46491400       0.88121400       0.14246440      -0.16743043       1.15474914
Fe       2.86828000       3.52346000       0.83472000       0.63525800      -0.40693500      -0.10677300       0.58760018      -0.85577316      -0.17605202
Fe       0.30208000       0.41203000       3.59178000       0.43152100       1.99959300       0.71104900       0.53516552       2.13622201       0.26857494
Fe       4.64149000       4.82814000       4.64319000      -2.32204000      -0.32641000       1.26424000      -2.69394444      -0.39938393       1.37285871
Fe       1.38623000       5.04883000       1.95913000       0.13404600      -0.76597900       0.26900800       0.49419846      -1.18319418       0.80252364
Fe       0.01651000       0.69762000       0.56316000       0.43357300       0.50429600      -0.59615700       0.14133879       0.36515903      -0.47034700
Fe       1.71843000       1.81951000       1.96274000      -0.50569400       0.44278300      -1.08150200      -0.65898534       0.74160285      -1.02487472
Fe       2.49328000       3.31853000       3.75571000       0.60663900       0.53722000       0.22889400       0.59023268       0.39226302       0.27021832
Fe       0.35204000       3.39611000       0.17394000       0.28417100      -0.58935200       0.45847800       0.19723336      -0.68245502       0.50904324
Fe       0.11270000       3.44811000       3.40342000       2.52442400       0.78461300       1.86263000       2.65985352       0.99176304       1.91582066
Fe       4.37430000       4.86511000       1.96411000       0.02203300      -0.44143500      -0.21812100       0.15143170      -0.37681149      -0.30115209
Fe       1.91304000       5.29856000       5.45252000       0.85584700       1.12077600      -1.36953800       0.99669073       0.90744412      -2.01782163
Fe       3.73798000       1.56980000       5.38787000      -0.36925300      -0.19880800      -0.23312100      -0.68280477       0.15807677      -0.33329226
15
Lattice="5.664536 0.0 0.0 0.0 5.664536 0.0 0.0 0.0 5.664536" Properties=species:S:1:pos:R:3:REF_forces:R:3:MACE_forces:R:3 config_type=Fe13Si1B1 REF_energy=-121.96103282 MACE_energy=-107.51402046943076 pbc="T T T"
B        1.89945000       0.62627000       3.85277000      -2.50069800       2.16966800      -1.53918900      -2.69620597       2.51374844      -0.71713338
Si       0.20120000       2.04269000       2.64503000       1.02931600      -0.66199100      -2.72694900       1.73868147       0.23632462      -2.20025224
Fe       2.66066000       5.42797000       2.26357000       0.53979700      -0.03646200      -1.31830900      -0.10770839      -0.68458576      -1.10406225
Fe       2.90276000       2.67008000       2.15492000      -1.83815700      -0.38139400      -2.84113500      -2.47465959       0.19223182      -2.13846586
Fe       3.76617000       1.41579000       3.61058000       1.59818700      -1.99316500       0.96094000       1.38048385      -1.17120211       1.40339631
Fe       4.35629000       3.78643000       3.20548000      -0.08184500       1.05317100       0.76552100      -0.23363137       0.84315485       0.95722717
Fe       4.47628000       4.06991000       0.64852000      -0.83953300      -0.22453300       0.86736600      -0.83420439      -0.47453993       0.33336210
Fe       4.19523000       1.12987000       0.84517000       0.20926900       0.78044000      -1.95195400       0.05690474       0.32323355      -0.91301702
Fe       1.20944000       0.98558000       0.54562000       0.36331500       0.64694800       1.15320100       0.58054323       0.60269307       0.31740766
Fe       2.93679000       5.24715000       4.85612000       1.78737200      -1.05335100       3.04321700       1.38511887      -1.56473559       2.05902058
Fe       2.46429000       3.02068000       4.78866000      -0.08418600      -0.93215200       0.71303400      -0.38481444      -0.83820718       0.07667731
Fe       5.64539000       2.77685000       4.69631000       0.33002600      -0.76378800       3.33994500       0.61746008      -0.16726046       2.34201431
Fe       1.14045000       3.92385000       0.99225000      -0.27335200       0.02348800       0.25089500       0.13635360      -0.03626672       0.01694236
Fe       0.17432000       5.38924000       4.59788000      -0.87103600      -0.20642700       0.99417600      -0.32509212      -0.31204974       0.45531728
Fe       5.41134000       5.44443000       2.36685000       0.63152700       1.57954900      -1.71076000       1.16077042       0.53746114      -0.88843433
15
Lattice="5.664536 0.0 0.0 0.0 5.664536 0.0 0.0 0.0 5.664536" Properties=species:S:1:pos:R:3:REF_forces:R:3:MACE_forces:R:3 config_type=Fe13Si1B1 REF_energy=-109.57699008 MACE_energy=-106.64351507364779 pbc="T T T"
B        1.60964000       1.20953000       3.30762000      -0.01479600      -0.54483200       0.36412700       0.09891386      -0.37180711       0.34976809
Si       1.95419000       3.78303000       0.40477000       2.58923000       0.78612200      -1.61162900       2.84200690       0.72827344      -1.50114370
Fe       3.57229000       4.89724000       1.78218000      -0.69680300       0.94883800       2.04020100      -0.93681818       0.96403070       1.87120997
Fe       3.21513000       2.00319000       1.86162000       1.30615200      -1.04311700      -1.34636300       1.08006000      -1.20741143      -1.56200003
Fe       5.12136000       1.05340000       3.05836000       0.48907600      -0.57242700       0.35981000       0.31546206      -0.94838338       0.55847035
Fe       5.33303000       3.41064000       3.19935000      -1.19050900       0.64225800       0.16946300      -0.66253008       0.81288165       0.01321707
Fe       4.69645000       3.56410000       0.59057000       0.42357200      -2.45414500       1.39631500       0.54390883      -2.77045913       1.41728242
Fe       5.00397000       0.79608000       0.67759000       0.28054300       1.18762000       0.69531900      -0.15997628       0.34929523       0.26950829
Fe       1.02131000       2.39370000       1.67631000      -1.48205000      -1.99677700       1.89497700      -1.60178118      -1.51511747       1.45459069
Fe       4.49205000       4.87623000       4.87240000      -1.22864200       1.13873400      -2.26444700      -1.30189813       1.33316330      -2.80231668
Fe       3.40200000       1.47027000       4.46233000      -0.01871000      -0.18409200       0.67173000      -0.11411994      -0.79191488       1.28506918
Fe       0.59504000       2.14210000       5.17631000       0.66645200      -0.32293300      -3.32851400       0.68386213      -0.75190408      -2.63513702
Fe       1.14446000       5.07983000       4.43636000      -0.37358200       1.06798600      -0.87155500      -0.18463263       1.22193333      -0.93927280
Fe       2.52599000       3.18146000       3.48749000      -0.80261000       1.79870400       1.25168000      -0.70673022       2.71304288       1.52296632
Fe       0.91985000       5.18762000       1.86613000       0.05267700      -0.45193900       0.57888600       0.10427287       0.23437697       0.69778786
15
Lattice="5.664536 0.0 0.0 0.0 5.664536 0.0 0.0 0.0 5.664536" Properties=species:S:1:pos:R:3:REF_forces:R:3:MACE_forces:R:3 config_type=Fe13Si1B1 REF_energy=-111.24757227 MACE_energy=-107.80287663899168 pbc="T T T"
B        2.53656000       2.62317000       3.66583000      -0.11566700      -0.22978700       0.53017200      -0.24712459       0.18628993       0.22864719
Si       0.67483000       4.27329000       2.69225000       0.92910600       0.68145900       0.71622000       0.83106852       0.26752612       1.19634616
Fe       5.14560000       5.37767000       1.05479000      -0.04263700       0.54874800      -0.34508500      -0.34912665       0.44847252      -0.17539260
Fe       5.17725000       2.96978000       1.28337000      -0.94481700       0.15150400      -1.65556500      -1.32574075       0.24211625      -1.98273905
Fe       4.74580000       3.13666000       4.02461000      -0.25444200      -0.82574700      -0.11998600       0.05377744      -0.45823228      -0.16289211
Fe       0.33821000       1.51110000       2.57588000       1.22080500      -1.49602800       0.46012600       1.64982050      -1.26734282       0.86715206
Fe       3.09808000       4.41167000       2.55098000       1.58954700      -0.62340300      -0.59486000       2.08592002      -1.37885209      -0.28647131
Fe       4.73088000       0.16933000       4.32731000       1.21238200      -0.98254900      -0.92008400       1.31811086      -1.28651702      -1.07699146
Fe       3.65998000       1.37781000       0.06620000      -0.53114300       0.39644200       0.40797800      -0.52728213       1.17244643      -0.19628176
Fe       3.63898000       1.27668000       2.55773000      -0.56432500       0.60761700      -1.09420600      -0.51786540       0.40467841      -0.57343390
Fe       3.30156000       4.03302000       5.51710000       0.66273100       0.68309200      -0.51252300       0.63073161       0.77694322      -1.09408049
Fe       2.04972000       2.93776000       1.03536000      -1.23701100      -0.98796000       1.66434700      -1.42668468      -1.22540104       1.89036300
Fe       2.16302000       5.60665000       3.99134000      -0.76618900       1.59088200       1.80303200      -0.91069888       1.37222223       1.60582361
Fe       0.95543000       1.84266000       4.95473000       0.27866900      -0.07002100       0.06014100      -0.10705442       0.09599354       0.02522858
Fe       2.02568000       0.02468000       0.99960000      -1.43701000       0.55575000      -0.39970700      -1.15785145       0.64965660      -0.26527792
15
Lattice="5.664536 0.0 0.0 0.0 5.664536 0.0 0.0 0.0 5.664536" Properties=species:S:1:pos:R:3:REF_forces:R:3:MACE_forces:R:3 config_type=Fe13Si1B1 REF_energy=-108.79062395 MACE_energy=-106.81406748788645 pbc="T T T"
B        5.36400000       3.87568000       4.45905000       0.44648400       0.57032200       0.28604800       0.15107172       0.37801551      -0.01754175
Si       3.93387000       4.96403000       3.15711000      -4.30606800      -2.31482200      -2.68264300      -4.09917625      -2.49958250      -2.29190826
Fe       3.00216000       0.92096000       1.44117000      -0.76996800       0.42082500      -0.07835300      -0.70872977       0.08428400       0.06489942
Fe       1.34518000       5.62588000       2.73234000       2.41172500       0.19969700       0.20083700       2.67322621       0.32897510       0.20290195
Fe       0.44730000       2.09377000       4.98703000       1.17940300       0.68255400       0.66504100       1.62159788       0.66795756       0.46024518
Fe       0.30923000       3.79563000       2.39919000      -0.97580900      -1.20085800      -1.00234600      -0.57945409      -0.90273507      -0.88106211
Fe       0.18648000       1.06356000       1.31692000      -0.60348600       1.79501500       0.12312700      -0.02631221       1.95718650       0.16220553
Fe       4.00265000       2.83038000       0.00570000       0.03088500      -0.70677300      -0.45368100      -0.02495482      -0.24877252      -0.32822206
Fe       5.37135000       0.30945000       4.05759000       2.43746500       1.21842000       2.05861100       1.70053954       1.71387340       2.16997069
Fe       2.32985000       3.12186000       1.52540000       0.40818200       0.55373600       0.67629300      -0.18822251       0.46935908       0.27473915
Fe       2.77320000       0.82160000       4.63749000       0.11143500       0.28254000       0.06072400       0.22030256       0.52551017       0.04739962
Fe       1.20304000       4.94889000       5.64649000       0.50304000      -0.54997900       0.60819900       0.24464330      -0.31616058       0.97253679
Fe       4.43330000       2.29054000       2.94368000      -1.10290800       0.42652200       0.72577900      -1.06876375       0.13596537       0.71870535
Fe       4.45738000       5.14386000       0.73674000       0.07827300      -0.88309100      -1.20270400      -0.14929479      -1.67074220      -1.18067452
Fe       2.20236000       3.55424000       4.11335000       0.15134500      -0.49410700       0.01507000       0.23352699      -0.62313384      -0.37419498
15
Lattice="5.664536 0.0 0.0 0.0 5.664536 0.0 0.0 0.0 5.664536" Properties=species:S:1:pos:R:3:REF_forces:R:3:MACE_forces:R:3 config_type=Fe13Si1B1 REF_energy=113.06017811 MACE_energy=-106.31322025909844 pbc="T T T"
B        1.39848000       0.19193000       0.61048000      -4.08297800       9.29302800       8.69098400       0.62098820       1.34209755       1.70057868
Si       2.92490000       2.16030000       2.14060000      -2.63496600       9.58037000      -0.49561900      -0.78949983      -1.11314923       1.84026216
Fe       2.86073000       2.70503000       5.26584000       4.32356800      10.20896900      -4.70309300       1.44761025      -1.71623874      -1.81070924
Fe       4.47802000       3.64784000       3.04881000      -8.75739200       8.66530300      12.20431400      -0.18345322       0.84993357       3.29363503
Fe       0.21576000       2.05514000       5.23160000     -18.24380600     -12.70694800      22.88283100       2.24335627       0.55476889      -0.63047389
Fe       0.44166000       2.36030000       2.32519000       9.91181000      13.04098500      -5.34425400       1.58990549      -0.48571482      -0.35284080
Fe       2.03954000       3.82953000       1.07367000      -9.51630500       5.90074000      24.04305300      -2.69724801       1.94037880       0.98000047
Fe       1.39295000       3.86962000       3.86875000       5.08493300      -5.56046400     -11.44166200       0.46268016      -0.69282512      -0.72966016
Fe       4.42805000       1.04262000       3.76613000      10.93879500       4.90624100      -3.25114800      -0.80100663       0.79596902       0.17929206
Fe       4.44753000       1.10914000       0.85325000      15.14670800      12.45203200      -7.47268500       0.01947800      -0.93099169       0.25222519
Fe       3.06886000       5.29358000       5.21060000      31.03933500     -34.73641400       1.35306500       0.27443813       0.12899806      -0.70645873
Fe       4.80801000       3.61880000       0.94850000       7.81841300       1.86551900       0.92546600      -1.01649024       0.43149965      -1.31891164
Fe       0.75179000       0.26400000       3.08937000     -19.58866100       1.56533600      18.55626500       0.79854395      -0.43817695      -1.21807377
Fe       3.22665000       5.43114000       2.39493000      -7.30714900       7.24190400      -9.20324300      -1.33752183      -0.25892992      -0.49436791
Fe       0.02250000       5.10600000       5.27962000     -14.13230600     -31.71660300     -46.74427400      -0.63178071      -0.40761908      -0.98449745
15
Lattice="5.664536 0.0 0.0 0.0 5.664536 0.0 0.0 0.0 5.664536" Properties=species:S:1:pos:R:3:REF_forces:R:3:MACE_forces:R:3 config_type=Fe13Si1B1 REF_energy=-108.9830283 MACE_energy=-106.05992858528009 pbc="T T T"
B        0.13992000       2.30465000       0.77632000      -2.78401400      -0.82058500       0.46110900      -2.12556960      -1.24912110       0.80211098
Si       2.50353000       2.08237000       3.22653000       0.57446500       0.76610200      -0.17485000       0.21784929       0.85833560       0.01503857
Fe       1.09387000       3.72736000       2.17845000      -2.33299800      -0.65384800       2.12861500      -2.20501344      -0.62699284       2.02082207
Fe       3.95659000       1.68198000       5.11388000       0.36857700       0.27726400       0.90410800       0.50048800      -0.01138791       1.18106994
Fe       3.24055000       0.05102000       1.45794000       1.85872300       1.81044900       1.22583000       1.99550161       1.80887498       1.33898309
Fe       1.11690000       0.40651000       2.78471000       0.23956900      -0.40930100      -0.23173800      -0.05571596      -0.48583670       0.35824870
Fe       4.54933000       5.58716000       3.59286000      -0.31901000      -1.37235600       0.15251700       0.06522694      -1.37849412       0.23520401
Fe       2.02209000       2.17177000       0.81391000       2.28654300       0.57567400       0.95002900       1.99314432       0.64664571       0.82418828
Fe       2.49600000       4.37528000       3.91048000       1.01885200       0.91593900      -0.12431400       0.58461691      -0.12620834       0.30675525
Fe       1.55562000       0.82810000       4.97050000      -1.41574600      -0.55119900      -1.41023600      -1.14738598      -0.01502192      -1.34244660