1
Lattice="18.0 0.0 0.0 0.0 18.0 0.0 0.0 0.0 18.0" Properties=species:S:1:pos:R:3:REF_forces:R:3:MACE_forces:R:3 config_type=IsolatedAtom REF_energy=-3.283081 MACE_energy=-3.283081 pbc="T T T"
Fe       0.00000000       0.00000000       0.00000000       0.00000000       0.00000000       0.00000000      -0.00000000      -0.00000000      -0.00000000
1
Lattice="18.0 0.0 0.0 0.0 18.0 0.0 0.0 0.0 18.0" Properties=species:S:1:pos:R:3:REF_forces:R:3:MACE_forces:R:3 config_type=IsolatedAtom REF_energy=-0.81049333 MACE_energy=-0.81049333 pbc="T T T"
Si       0.00000000       0.00000000       0.00000000       0.00000000       0.00000000       0.00000000      -0.00000000      -0.00000000      -0.00000000
1
Lattice="18.0 0.0 0.0 0.0 18.0 0.0 0.0 0.0 18.0" Properties=species:S:1:pos:R:3:REF_forces:R:3:MACE_forces:R:3 config_type=IsolatedAtom REF_energy=-0.27559471 MACE_energy=-0.27559471 pbc="T T T"
B        0.00000000       0.00000000       0.00000000       0.00000000       0.00000000       0.00000000      -0.00000000      -0.00000000      -0.00000000
10
Lattice="9.0 0.0 0.0 0.0 9.0 0.0 0.0 0.0 9.0" Properties=species:S:1:pos:R:3:REF_forces:R:3:MACE_forces:R:3 config_type=Fe5B1Si4 REF_energy=-44.58554767 MACE_energy=-20.99509706991678 pbc="T T T"
Fe       3.50176000       8.99673000       3.09396000       0.95435000      -0.45803800       0.21474200       0.59734478      -0.55681330      -0.85114707
Fe       6.43801000       1.81225000       6.74888000       1.10970900      -0.66476800      -1.17007400       0.17510713      -0.21163762      -0.33649728
Fe       2.41193000       0.16613000       4.88253000       0.30913200      -0.89996000       0.17011800      -0.46594842      -0.25372596       1.03227140
Fe       8.52164000       3.22369000       0.34244000      -0.58790500      -0.47306700      -0.37861700       0.00074701       0.00050571       0.00092986
Fe       5.66627000       2.92739000       3.87411000       4.77509600       2.80733600       2.40000400       0.49236174       1.35020119       0.48816664
B        5.18442000       1.13758000       3.40139000      -0.73957100       0.38065100       0.44676100      -0.16311072      -0.29760479      -0.10794358
Si       7.10242000       1.59600000       3.97694000       2.28029300      -3.67324000       1.18634800       1.04543875      -1.04101623       0.41244199
Si       7.70822000       8.86280000       6.25904000      -0.73207200       1.84563600      -0.48266000      -0.16526861       0.29095215      -0.05299889
Si       3.91832000       3.09724000       3.40175000      -6.85054500      -1.08983400      -1.75602400      -1.30135854      -0.06865826      -0.37847660
Si       3.63788000       6.78794000       4.49538000      -0.51848800       2.22528500      -0.63059800      -0.21531313       0.78779710      -0.20674647
10
Lattice="9.0 0.0 0.0 0.0 9.0 0.0 0.0 0.0 9.0" Properties=species:S:1:pos:R:3:REF_forces:R:3:MACE_forces:R:3 config_type=Fe5B1Si4 REF_energy=-48.18464377 MACE_energy=-22.00899040087417 pbc="T T T"
Fe       7.72908000       2.13801000       3.67226000      -0.72140700       1.38590200       0.18439100       0.11264003       0.48677091      -0.16352979
Fe       2.56544000       0.37534000       3.55582000       0.62580800       1.02854400      -0.21951900       0.65143766      -0.11096263      -0.84739241
Fe       5.84797000       2.87648000       5.04299000      -0.51992300      -1.03088200      -1.60504700      -0.28759459      -0.52854811       0.41257610
Fe       2.00259000       1.62931000       5.21757000       0.16709900       0.68697000      -1.46342200      -0.20359841       0.90360261       0.26231376
Fe       3.04146000       3.03902000       3.03634000       2.84541400      -0.11631900       1.57660000       0.90950475      -0.37177646       0.52821784
B        4.26036000       4.67435000       3.72342000       0.68065500      -0.16735200      -1.56590600       0.12990719      -0.12827140      -0.12181001
Si       6.34493000       4.18783000       3.43892000      -0.40775000      -0.06673100      -0.63978400       0.27712609       0.16410719      -0.54510200
Si       0.98363000       2.81182000       2.85911000      -2.44913300      -1.45501500       1.18349900      -1.27788183      -0.42999073       0.29934439
Si       4.97672000       0.35177000       3.88032000      -0.44220000       1.58116100       0.17191700      -0.32006786       0.17060143       0.01532448
Si       4.49316000       6.21641000       2.06194000       0.22143900      -1.84627800       2.37727300       0.00852697      -0.15553281       0.16005763
10
Lattice="11.0 0.0 0.0 0.0 11.0 0.0 0.0 0.0 11.0" Properties=species:S:1:pos:R:3:REF_forces:R:3:MACE_forces:R:3 config_type=Fe5B1Si4 REF_energy=-11.58855075 MACE_energy=-20.988389607154936 pbc="T T T"
Fe       8.76471000       0.00946000       6.88513000      -0.22819700       0.12237200      -0.55543600      -0.00000000      -0.00000000      -0.00000000
Fe       2.63377000       1.33277000       3.45207000      -0.77576300      -0.08136400      -0.00027500       0.26367758       0.34731037      -0.19876843
Fe       9.34605000       7.55219000       3.04608000      -1.57311900      -1.03473800      -0.15487700      -0.17074140      -0.03326783       0.00250129
Fe       6.36389000       7.12183000       3.09324000       1.09683100       0.04242100      -0.12816300       0.17759412       0.02562883      -0.00280848
Fe       1.35866000       0.14865000       4.85122000       1.24564900       1.43265900      -2.24078300      -0.56805171      -0.20061349       0.05128257
B        0.74424000       4.87887000       2.93866000      -1.13359500      -0.78566000      -1.94809000      -0.02872345      -0.06527211      -0.15224551
Si       0.41110000       1.07145000       2.73658000       1.34178700       0.50456200      -0.25058800       0.51332474      -0.07605188       0.17585575
Si       0.39736000       3.73439000       0.50956000      -1.07905800      -1.52336200       2.18566600      -0.25749342      -0.15839615       0.20936602
Si       9.29283000       2.08457000       0.89045000       2.55214100       0.43757800       0.40081500       0.34820369       0.18977728       0.00634921
Si       2.63700000       1.37373000       1.21644000      -1.44667700       0.88553200       2.69173100      -0.27779015      -0.02911503      -0.09153243
10
Lattice="11.0 0.0 0.0 0.0 11.0 0.0 0.0 0.0 11.0" Properties=species:S:1:pos:R:3:REF_forces:R:3:MACE_forces:R:3 config_type=Fe5B1Si4 REF_energy=-38.14997444 MACE_energy=-21.407675646645558 pbc="T T T"
Fe       0.55560000       8.19331000       7.06229000       0.60700700      -1.87987400       0.40247700       0.01318038      -0.01029659      -0.00148478
Fe       0.49601000       2.54487000       7.78872000      -1.62914400       1.44061600       0.72816300      -0.64668315       0.31932899       0.18295981
Fe      10.07332000       3.88379000       9.42053000       1.49055100       0.96476400      -0.05327700       0.77965199       0.33470468       0.66600309
Fe       4.45932000       9.07691000       6.11289000       0.24660800      -0.52821700      -0.02378300       0.76740267      -0.89712330       0.03214254
Fe       9.54221000       0.53076000       0.28158000      -0.51209300       1.49842300      -0.39218500      -0.03763731       0.08181122      -0.01583525
B       10.69505000       5.70310000       8.40523000       0.71876200      -1.05034900      -0.26069900      -0.03023855      -0.25244131       0.03816308
Si       9.01619000       3.31434000       7.76349000       0.22101700      -0.39376100      -0.82483600      -0.07104712      -0.40123512      -0.86183370
Si       1.50005000       6.10934000       7.36041000      -1.47354600       0.22179200       0.82993100      -0.08644877      -0.00126909       0.04237184
Si       8.29851000       3.23195000      10.75936000       1.25238600      -0.70606300      -0.69191000       0.08200517      -0.06797234      -0.05142959
Si       3.13187000      10.62875000       6.05729000      -0.92154800       0.43266900       0.28612000      -0.77018530       0.89449285      -0.03105705
10
Lattice="11.0 0.0 0.0 0.0 11.0 0.0 0.0 0.0 11.0" Properties=species:S:1:pos:R:3:REF_forces:R:3:MACE_forces:R:3 config_type=Fe5B1Si4 REF_energy=-39.54850766 MACE_energy=-21.750459496156456 pbc="T T T"
Fe       7.32260000       2.25273000       9.60151000      -0.81068000       1.95759200       1.52424100      -0.06549156       0.35469772       0.34248646
Fe       5.30456000       3.18059000       0.62935000       3.59407800       0.60301100       0.45004200       1.53657861       0.49734428       0.20457068
Fe       5.70290000       5.32015000      10.23784000      -0.55638700      -0.41691100      -0.58631200      -0.46867000      -0.48469707       0.22252566
Fe       7.71673000       4.32859000       0.10409000      -1.51783000      -0.48364700      -0.94636500      -0.37520558      -0.50433106      -0.11406890
Fe       5.73415000       7.17747000       8.80515000      -0.19559000      -2.26799700       1.43769300      -0.00424714       0.18751419      -0.14720557
B        3.53335000       2.44513000       3.14396000       1.80602500       1.42469000       1.46529900       0.11287965       0.10341643       0.07858635
Si       3.05847000       4.99331000       9.56994000       1.58460600       0.22347600       0.29443400       0.37421488      -0.06335080       0.19951989
Si       4.66874000       2.05360000       5.35076000      -1.23296500       0.33348000      -2.53096100      -0.08823652       0.03128034      -0.17214494
Si       3.35109000       3.37679000       0.23198000      -2.51854700       0.79060000      -0.76406600      -1.12828298       0.39487923       0.02893407
Si       4.02675000       4.41289000       2.41329000      -0.15270900      -2.16429400      -0.34400600       0.10646064      -0.51675326      -0.64320369
10
Lattice="11.0 0.0 0.0 0.0 11.0 0.0 0.0 0.0 11.0" Properties=species:S:1:pos:R:3:REF_forces:R:3:MACE_forces:R:3 config_type=Fe5B1Si4 REF_energy=-30.22050192 MACE_energy=-20.96995485008216 pbc="T T T"
Fe       7.51027000      10.11418000       2.18625000      -1.69790900       1.72973200      -1.19644900      -1.17905284       1.26325881      -0.20875780
Fe       6.52329000       1.24583000       0.98294000       2.87583100      -1.88416600       0.59355300       0.53735132      -0.24527067       0.39177392
Fe       8.50320000       0.98219000       3.23617000       1.14940800      -1.93965800      -1.01181700       0.27852972      -1.37676551      -0.02222384
Fe       8.81725000       8.60479000       1.96311000       1.70133000      -1.33465300       0.85149000       1.10452312      -1.15440003       0.63047667
Fe       9.16079000       2.26416000       1.64872000      -0.92180800       1.06168500      -1.01542500       0.21606640       0.81340730      -0.90671753
B        8.94441000       4.16897000      10.47399000      -1.12511400       0.54375800       0.63670800      -0.05063477       0.05288745       0.00944630
Si      10.42398000       4.23416000       1.05026000      -1.52480000      -0.05410100      -1.01659500      -0.26861388      -0.27879357      -0.01509926
Si       7.56198000       2.31002000       4.34386000      -1.29363800       1.80115300       0.97958300      -0.62352693       0.90412816       0.71774792
Si       8.52672000       8.61906000      10.86161000      -0.94443500       0.65405000      -0.31886100      -0.15836011       0.07553398      -0.69172678
Si       6.81456000       4.96874000       9.06450000       1.78113500      -0.57779900       1.49781200       0.14371797      -0.05398592       0.09508039
10
Lattice="11.0 0.0 0.0 0.0 11.0 0.0 0.0 0.0 11.0" Properties=species:S:1:pos:R:3:REF_forces:R:3:MACE_forces:R:3 config_type=Fe5B1Si4 REF_energy=-36.59236839 MACE_energy=-21.203477334646493 pbc="T T T"
Fe       3.58274000      10.79851000      10.73667000       0.11897900       0.22630100      -0.04976800      -0.00000000      -0.00000000      -0.00000000
Fe       1.22875000       2.49300000       7.21708000       2.26097500      -1.53625800       1.07649700       0.87678359      -0.49357000       0.65778787
Fe       0.83190000       3.93076000       3.48688000       1.35086000      -1.69250200       0.45489600       0.57268471      -0.87870545      -1.01192653
Fe       9.39560000       2.93064000       6.23859000      -2.27414300      -0.91782300      -0.86979000      -0.97833008      -0.30996716      -0.25309852
Fe       1.68648000       4.78764000       5.33563000      -2.42207400      -1.78775100      -0.34755700      -0.33653597      -0.12958176       0.82947165
B        0.09146000       3.23421000       6.27209000       0.33374200       3.18943500      -3.08739300       0.38451561       1.11815885      -1.19547154
Si      10.14804000       1.29848000       4.70398000      -0.27194000       2.69997500       0.88966000       0.01261785       0.29678132       0.23769412
Si       7.91960000       4.68330000       6.38399000       1.00571800      -0.89791700      -1.90531900      -0.02324300      -0.08796280      -0.34473953
Si       7.87407000       3.80560000       3.83659000       1.69436900       0.65761100       2.09344900       0.44093211       0.26065501       0.48771906
Si      10.18862000       4.97429000       4.13294000      -1.79648600       0.05892800       1.74532400      -0.94942482       0.22419197       0.59256341
10
Lattice="11.0 0.0 0.0 0.0 11.0 0.0 0.0 0.0 11.0" Properties=species:S:1:pos:R:3:REF_forces:R:3:MACE_forces:R:3 config_type=Fe5B1Si4 REF_energy=-37.97135349 MACE_energy=-21.025870762226393 pbc="T T T"
Fe       9.03194000       7.52207000       3.76953000      -0.41692800       1.06213800       1.36215600       0.16781799      -0.16892556      -0.25518196
Fe      10.13763000      10.16701000       4.97367000      -1.48414600      -0.40832500      -0.11078200       0.77841547      -0.23366444       0.07924751
Fe       4.72985000       7.86062000       7.54580000      -0.46341600      -0.84233600       0.25668000      -0.18492926      -0.41441404      -0.11243706
Fe       8.27206000       8.93115000       5.41966000       2.10203900       0.88604100      -1.49179500      -0.50938126       0.11132219       0.33171234
Fe       4.77388000       2.87329000       5.35297000      -0.27504900      -0.53922100      -0.84728100       0.09762302      -0.69367396      -0.99327220
B        4.61354000       3.86066000       6.74103000      -0.14362800      -0.14915200      -1.57005500      -0.09021990       0.65638139       0.98905819
Si       1.64433000       3.13639000       3.91354000       3.75707800      -0.87803400      -0.36408100       0.79716670      -0.21662605      -0.35866882
Si       3.74801000       5.66030000       6.94882000       0.45210300       0.36957600       0.68487900       0.16502283       0.45276036       0.11090508
Si       8.69515000       0.60160000       4.24738000      -0.18983800      -0.10747800       0.51028900      -0.43497637       0.29386213      -0.15536032
Si      10.87890000       3.62141000       4.73344000      -3.33821400       0.60679200       1.56999000      -0.78653922       0.21297798       0.36399724
10
Lattice="11.0 0.0 0.0 0.0 11.0 0.0 0.0 0.0 11.0" Properties=species:S:1:pos:R:3:REF_forces:R:3:MACE_forces:R:3 config_type=Fe5B1Si4 REF_energy=-19.85588119 MACE_energy=-20.37729204446079 pbc="T T T"
Fe       0.38446000       1.64586000       0.19247000      -0.31544900       0.99906300      -1.16531000      -0.00019885       0.00006282      -0.00046829
Fe       4.73202000       7.12132000       7.31276000       0.31929800      -0.23556100       1.39875500       0.00249802       0.00414732       0.02023386
Fe       0.36789000       2.73674000       6.71847000       0.18431700      -0.99436400      -3.07194200       0.70552821       0.24356710      -1.36335121
Fe      10.07665000       2.07009000       8.11408000      -1.05625300       0.13475800      -0.04421700      -1.06301922      -0.61616973       0.83710174
Fe       0.10300000      10.83360000       4.98934000      -0.79988200       1.03958000       0.82376600       0.03779873      -0.04615972      -0.02695103
B        9.83138000       1.34479000       5.59342000       2.73003300      -1.60069300       1.71860100       0.60246230       0.09757101       0.97542042
Si       8.95511000       2.30296000       4.33786000      -0.13907800       0.36771900       0.11506400      -0.28257117       0.32112851      -0.42175162
Si       3.99539000      10.22212000       8.61506000      -0.05248500      -0.48071600       0.18941400       0.00308726      -0.01299529      -0.00545743
Si       2.69021000       5.15166000      10.73011000       1.27722300       0.17680000       0.10453800       0.01778299       0.00198338      -0.00405277
Si       5.75937000       5.49395000      10.03068000      -2.14772600       0.59341400      -0.06866800      -0.02336827       0.00686458      -0.01072366
10
Lattice="9.0 0.0 0.0 0.0 9.0 0.0 0.0 0.0 9.0" Properties=species:S:1:pos:R:3:REF_forces:R:3:MACE_forces:R:3 config_type=Fe5B1Si4 REF_energy=-45.52219027 MACE_energy=-22.244135695778393 pbc="T T T"
Fe       5.95652000       4.23215000       1.06155000      -0.98767900      -0.50029400      -0.25142400       0.27965300       0.16935720      -0.78227646
Fe       5.13270000       1.30654000       4.87525000      -1.02972800       1.07694500      -1.04271400      -0.39481285       0.70571237      -0.40285350
Fe       0.86010000       2.84042000       4.86982000       1.78090900      -0.14036100      -0.68290200       0.06979119       0.00447385      -0.01911519
Fe       4.80846000       2.20734000       0.33653000      -0.70934400       1.79820400       0.47599400      -0.50509331       0.32028882       0.30393498
Fe       4.84818000       3.73073000       2.87016000      -1.11599800      -1.47444400      -2.61602900      -0.64458219      -0.36285670      -1.03032408
B        3.56051000       3.01373000       4.13091000      -3.27582500      -2.90917300      -1.74282900      -0.49074899      -0.94140385       0.12542193
Si       3.41138000       1.28778000       2.26512000       0.95707700       2.37405100       0.97860500       0.38178396       0.61924947      -0.21697172
Si       5.16668000       2.63723000       6.68984000       0.07413900      -1.78642600       3.36318600      -0.03397367      -0.25891672       1.02697972
Si       3.08125000       3.86721000       0.97989000       1.93930500      -1.04831500       0.87154200       0.83048286      -0.43623824       0.31485530
Si       4.99984000       3.77363000       4.95280000       2.36714300       2.60981200       0.64657100       0.50749998       0.18033380       0.68034901
10
Lattice="11.0 0.0 0.0 0.0 11.0 0.0 0.0 0.0 11.0" Properties=species:S:1:pos:R:3:REF_forces:R:3:MACE_forces:R:3 config_type=Fe5B1Si4 REF_energy=-40.7418507 MACE_energy=-21.08198018716729 pbc="T T T"
Fe       5.85212000       3.50546000       5.08734000       2.15677100      -0.79414500      -0.20894700       0.02318676      -0.35806421       0.21524044
Fe       4.00684000       5.71103000       1.22208000       0.17321900       0.19260900       1.30384500       0.02205424       0.04806193       0.21003883
Fe       8.00148000       8.34774000      10.98030000      -0.08363800      -0.04550400       0.02901100      -0.00000000      -0.00000000      -0.00000000
Fe       7.35073000       2.40140000       6.64128000       0.77906300       1.12479900      -0.71056100       0.39886761       0.19557967      -0.04312740
Fe      10.15241000       4.26124000       5.16236000      -1.21868700      -1.07976300       1.03424500      -0.81498999       0.05957127       0.77746826
B        7.50939000       3.71850000       4.30627000       0.81775400       0.01191000       1.18846500       0.68739017      -0.00664327      -0.11951812
Si       0.88259000       3.63568000       4.13155000       0.18457900       0.08807600       0.63549900       0.73016021      -0.26161102      -0.43095167
Si       4.29968000       6.34926000       4.01086000      -0.04470200      -1.65685100      -0.27530200      -0.08017398      -0.38036461       0.00805628
Si       3.89182000       4.30839000       5.36988000      -1.81091900       1.59107900      -0.75492800      -0.62069652       0.59953725      -0.11765871
Si       9.83466000       2.97427000       7.53103000      -0.95344000       0.56779200      -2.24132700      -0.34579851       0.10393300      -0.49954791
10
Lattice="9.0 0.0 0.0 0.0 9.0 0.0 0.0 0.0 9.0" Properties=species:S:1:pos:R:3:REF_forces:R:3:MACE_forces:R:3 config_type=Fe5B1Si4 REF_energy=-42.65563223 MACE_energy=-21.983078903919317 pbc="T T T"
Fe       5.47398000       6.28103000       3.23251000       0.28355300       0.05833700       0.13117200       0.45146701       0.75328135       0.35859775
Fe       3.48819000       2.94480000       4.89866000      -0.87509200      -0.04370600       2.15230300      -0.07889928       0.17296873       1.01222509
Fe       8.33854000       1.27421000       2.74786000      -0.46364400       1.92715600       1.33564000      -0.42475387       0.35923148       0.33836528
Fe       6.99962000       2.76087000       4.14267000      -0.44746500       1.63766400       1.88762100      -0.02972300       0.33594529       0.73190287
Fe       1.77962000       3.26723000       3.35280000      -0.52218800      -0.67489800       0.43259300      -0.13056337      -0.21711249       0.09883900
B        4.62666000       4.86714000       2.55939000       0.26614600      -1.03752000       0.98811100      -0.49527880      -0.96460894      -0.30870300
Si       4.18354000       2.39378000       2.99079000       0.43795500       1.50930000      -2.71878500      -0.11889719       0.17177920      -0.76306602
Si       8.55432000       3.88894000       3.61944000       3.24804800       2.01892900      -1.57919700       1.11637038       0.27015030      -0.26823371
Si       5.93563000       1.17498000       3.69373000      -1.91994400      -5.30800600      -1.48876300      -0.22262186      -1.10938703      -0.45758937
Si       0.45419000       2.68863000       5.46192000      -0.00736800      -0.08725600      -1.14069400      -0.06710003       0.22775212      -0.74233787
10
Lattice="11.0 0.0 0.0 0.0 11.0 0.0 0.0 0.0 11.0" Properties=species:S:1:pos:R:3:REF_forces:R:3:MACE_forces:R:3 config_type=Fe5B1Si4 REF_energy=-34.53347477 MACE_energy=-20.949469317130873 pbc="T T T"
Fe      10.38446000       0.44273000       4.17388000      -0.78237800      -1.86098300       1.10984900      -0.22490058      -0.16355510       0.17753011
Fe       5.58579000       5.13476000       2.28318000      -1.35183300       0.99168200      -0.54319900      -0.26338345       0.40303966       0.65560255
Fe      10.26893000       9.29847000       6.65501000       0.41344200       0.04548900      -2.04786900       0.21639963      -0.06851336      -0.39638113
Fe       8.86095000       8.11141000       4.18070000       1.29133000       1.24914000       1.04926000       0.07182324       0.05044972       0.09705474
Fe       7.69214000       0.53975000       5.12514000       1.95509500      -0.60911200      -1.00813900       0.33271398      -0.01210640      -0.11757580
B        2.74748000       4.83778000       0.91630000       1.39196400      -0.12393600      -0.20196400      -0.23544211       0.04281333       0.20484174
Si       6.81162000       1.90994000       1.53462000      -0.52184800       1.18261600      -0.41056100      -0.11514517       0.36465852      -0.16128618
Si       6.12115000       4.10888000       0.52255000       1.58173000      -1.75162600       1.46051100       0.59514269      -0.84695084      -0.46181031
Si       0.91081000       9.09353000       4.86613000      -2.08485700       0.69467200       0.51855400      -0.39604202       0.19373409       0.23934862
Si       4.16380000       4.58033000      10.67633000      -1.89264600       0.18205800       0.07355800       0.01883379       0.03643039      -0.23732434
10
Lattice="11.0 0.0 0.0 0.0 11.0 0.0 0.0 0.0 11.0" Properties=species:S:1:pos:R:3:REF_forces:R:3:MACE_forces:R:3 config_type=Fe5B1Si4 REF_energy=-31.88716106 MACE_energy=-21.546752561917554 pbc="T T T"
Fe       1.14116000       9.49468000      10.94139000       1.03161900      -0.44995100      -0.39877100       0.04391320      -0.07765868      -0.05083832
Fe       7.21367000       6.98307000       4.70883000      -2.94301400      -1.46688800       0.65014200      -0.70642530      -0.04223470      -0.01446319
Fe       4.99485000       7.56523000       3.28858000       0.74465000      -0.23543700      -0.70888800       0.12975902      -0.29139181      -0.05987611
Fe       5.11075000       7.78078000       8.02245000      -0.73545200      -0.54142400       0.97332500      -0.14063608      -0.18351174       0.05196563
Fe       5.02580000       6.08327000       6.14288000       1.53107200       2.07986600      -0.44355300       0.34755762       0.35600052      -0.03111756
B        6.46739000       9.52531000       1.42776000      -0.83213000      -0.78314200       0.21534400       0.00747518       0.00844995      -0.00546567
Si       3.36056000       5.78054000       9.88043000      -0.35408900       0.86759200       0.70337500      -0.12961961       0.76521941       0.38323932
Si       3.68875000       6.60974000       1.41965000       0.14004300       0.02695200      -1.00259500       0.21459536       0.21220084      -0.19698873
Si       3.95884000       8.08391000      10.56775000       0.21456400       0.93303900      -0.26874100      -0.39300253      -0.58255250      -0.32359785
Si       1.56076000       7.66233000       9.57449000       1.20273800      -0.43060700       0.28036300       0.62638314      -0.16452130       0.24714250
10
Lattice="11.0 0.0 0.0 0.0 11.0 0.0 0.0 0.0 11.0" Properties=species:S:1:pos:R:3:REF_forces:R:3:MACE_forces:R:3 config_type=Fe5B1Si4 REF_energy=-2.43842541 MACE_energy=-21.17607709242952 pbc="T T T"
Fe       8.11536000       3.96737000       6.09845000       2.52379000       3.39438000      -0.10855200       1.25688767       1.31242497      -0.37723806
Fe       4.00538000       4.00868000       8.30741000       1.03860200       0.49749300      -0.86210200      -0.00065852       0.00022136       0.00063975
Fe       6.21734000       5.49238000       4.54674000      -1.90078500      -0.53233000       2.45773000      -0.98385058      -0.91304877       1.01159346
Fe       6.37295000       3.21617000       6.01003000      -4.31429000      -0.62928100      -0.35144300      -1.77441966      -0.27496528      -0.55897048
Fe       4.28107000       3.14598000       4.09228000       1.68301600       0.43320300       1.57416800       0.34941623       0.10320845       0.26734577
B        8.65122000       7.09833000       7.78974000      -0.81588400      -0.96711600      -2.45875700       0.01244108       0.04767095       0.19264349
Si       8.15838000       5.95236000       4.46257000       2.65955200       1.43037300       0.95638300       1.10868625       0.25942273       0.69691098
Si       7.04021000       6.67768000       6.73922000       0.09201500      -1.71899800      -1.45860000       0.09021924      -0.45736989      -0.86667030
Si       9.92269000       6.79012000       6.33039000      -1.33422700      -1.06385500      -1.26044000      -0.28416725      -0.15321915      -0.34194958
Si       6.58826000       7.17809000       3.12641000       0.36821200      -0.84387000       1.51161300       0.22544553       0.07565462      -0.02430503
10
Lattice="6.0 0.0 0.0 0.0 6.0 0.0 0.0 0.0 6.0" Properties=species:S:1:pos:R:3:REF_forces:R:3:MACE_forces:R:3 config_type=Fe5B1Si4 REF_energy=-53.79328822 MACE_energy=-22.784132288390495 pbc="T T T"
Fe       0.50996000       2.31585000       5.10298000      -1.26599000      -0.50951400      -1.36914100      -0.35600269      -0.37253416      -0.29829453
Fe       4.41281000       4.39623000       3.51801000       2.05066400       2.95138500      -2.14682400       0.90329937       1.16947320      -1.72134474
Fe       1.31233000       5.37312000       2.96679000      -9.66985400       0.21848200       6.64889800      -1.33081000       0.14262738       1.22680775
Fe       5.30196000       5.42046000       5.41384000       1.20364700       0.82237100      -1.12375000       0.40718713       0.34581247       0.09102853
Fe       2.97556000       4.92730000       5.11455000      -0.79718400       0.13310700       0.96147400      -0.54553008      -0.10967961       0.58327124
B        5.46078000       0.52907000       3.64926000      -0.06089300       0.25590500       0.66478200       0.07404640      -0.21314498      -0.01837197
Si       2.81628000       5.37752000       2.00180000       6.85751800      -0.72904200      -5.53711500       1.15932619      -0.18870682      -0.60546548
Si       3.67557000       2.72706000       4.43876000      -0.82806600      -3.20205400       1.23328500      -0.29818886      -0.88241860       0.22466873
Si       4.50462000       4.23004000       1.13387000       0.98654700      -1.71437000      -0.38631400      -0.23505480      -0.14095071       0.03713075
Si       3.47649000       1.50306000       2.12993000       1.52361000       1.77373100       1.05470500       0.22172733       0.24952184       0.48056973
10
Lattice="12.0 0.0 0.0 0.0 12.0 0.0 0.0 0.0 12.0" Properties=species:S:1:pos:R:3:REF_forces:R:3:MACE_forces:R:3 config_type=Fe5B1Si4 REF_energy=-45.66921287 MACE_energy=-21.442210617049618 pbc="T T T"
Fe       4.03767000       2.41086000       6.51410000       1.86803300       0.00585300       0.51063200       1.22091543       0.02695581       0.09943237
Fe       4.79727000      11.75927000       9.09533000       0.54049700       0.45513700      -1.32376800      -0.49869461      -0.22020928       0.91901362
Fe       5.80034000       0.20229000       7.24671000      -0.98588000       0.20802500       0.94137200       0.33427911       0.42621491      -0.98738232