1
Lattice="18.0 0.0 0.0 0.0 18.0 0.0 0.0 0.0 18.0" Properties=species:S:1:pos:R:3:REF_forces:R:3:MACE_forces:R:3 config_type=IsolatedAtom REF_energy=-3.283081 MACE_energy=-3.283081 pbc="T T T"
Fe       0.00000000       0.00000000       0.00000000       0.00000000       0.00000000       0.00000000      -0.00000000      -0.00000000      -0.00000000
1
Lattice="18.0 0.0 0.0 0.0 18.0 0.0 0.0 0.0 18.0" Properties=species:S:1:pos:R:3:REF_forces:R:3:MACE_forces:R:3 config_type=IsolatedAtom REF_energy=-0.81049333 MACE_energy=-0.81049333 pbc="T T T"
Si       0.00000000       0.00000000       0.00000000       0.00000000       0.00000000       0.00000000      -0.00000000      -0.00000000      -0.00000000
1
Lattice="18.0 0.0 0.0 0.0 18.0 0.0 0.0 0.0 18.0" Properties=species:S:1:pos:R:3:REF_forces:R:3:MACE_forces:R:3 config_type=IsolatedAtom REF_energy=-0.27559471 MACE_energy=-0.27559471 pbc="T T T"
B        0.00000000       0.00000000       0.00000000       0.00000000       0.00000000       0.00000000      -0.00000000      -0.00000000      -0.00000000
10
Lattice="9.0 0.0 0.0 0.0 9.0 0.0 0.0 0.0 9.0" Properties=species:S:1:pos:R:3:REF_forces:R:3:MACE_forces:R:3 config_type=Fe5B1Si4 REF_energy=-44.58554767 MACE_energy=-38.464218795204275 pbc="T T T"
Fe       3.50176000       8.99673000       3.09396000       0.95435000      -0.45803800       0.21474200       1.27210781       0.00260081       0.82457621
Fe       6.43801000       1.81225000       6.74888000       1.10970900      -0.66476800      -1.17007400       0.95613641      -0.76260707      -1.66537894
Fe       2.41193000       0.16613000       4.88253000       0.30913200      -0.89996000       0.17011800       0.93903485      -0.79482849      -0.37742817
Fe       8.52164000       3.22369000       0.34244000      -0.58790500      -0.47306700      -0.37861700      -0.29424351      -0.19836092      -0.36578911
Fe       5.66627000       2.92739000       3.87411000       4.77509600       2.80733600       2.40000400       4.21098818       2.61116816       2.45793193
B        5.18442000       1.13758000       3.40139000      -0.73957100       0.38065100       0.44676100      -1.60992252       0.26886872       0.34871124
Si       7.10242000       1.59600000       3.97694000       2.28029300      -3.67324000       1.18634800       3.03012538      -3.96515107       1.71852223
Si       7.70822000       8.86280000       6.25904000      -0.73207200       1.84563600      -0.48266000      -0.87711555       1.65521016      -0.46204295
Si       3.91832000       3.09724000       3.40175000      -6.85054500      -1.08983400      -1.75602400      -6.96695235      -1.02951710      -1.94700968
Si       3.63788000       6.78794000       4.49538000      -0.51848800       2.22528500      -0.63059800      -0.66015870       2.21261680      -0.53209277
10
Lattice="9.0 0.0 0.0 0.0 9.0 0.0 0.0 0.0 9.0" Properties=species:S:1:pos:R:3:REF_forces:R:3:MACE_forces:R:3 config_type=Fe5B1Si4 REF_energy=-48.18464377 MACE_energy=-43.36400403440702 pbc="T T T"
Fe       7.72908000       2.13801000       3.67226000      -0.72140700       1.38590200       0.18439100      -0.34853074       0.84109680       0.06496414
Fe       2.56544000       0.37534000       3.55582000       0.62580800       1.02854400      -0.21951900       1.08501174       1.47351371       0.19986150
Fe       5.84797000       2.87648000       5.04299000      -0.51992300      -1.03088200      -1.60504700      -0.89341859      -1.22665048      -0.90900148
Fe       2.00259000       1.62931000       5.21757000       0.16709900       0.68697000      -1.46342200       0.26276410       0.36757826      -2.01344524
Fe       3.04146000       3.03902000       3.03634000       2.84541400      -0.11631900       1.57660000       2.83358953      -0.10981094       1.65123346
B        4.26036000       4.67435000       3.72342000       0.68065500      -0.16735200      -1.56590600       1.16229847      -0.47197667      -1.80530391
Si       6.34493000       4.18783000       3.43892000      -0.40775000      -0.06673100      -0.63978400      -1.20230995       0.56673840      -0.80142479
Si       0.98363000       2.81182000       2.85911000      -2.44913300      -1.45501500       1.18349900      -1.81683201      -1.37277051       1.30438168
Si       4.97672000       0.35177000       3.88032000      -0.44220000       1.58116100       0.17191700      -1.20083002       1.82460216       0.12767656
Si       4.49316000       6.21641000       2.06194000       0.22143900      -1.84627800       2.37727300       0.11825747      -1.89232073       2.18105807
10
Lattice="11.0 0.0 0.0 0.0 11.0 0.0 0.0 0.0 11.0" Properties=species:S:1:pos:R:3:REF_forces:R:3:MACE_forces:R:3 config_type=Fe5B1Si4 REF_energy=-11.58855075 MACE_energy=-32.04902324603087 pbc="T T T"
Fe       8.76471000       0.00946000       6.88513000      -0.22819700       0.12237200      -0.55543600      -0.00000000      -0.00000000      -0.00000000
Fe       2.63377000       1.33277000       3.45207000      -0.77576300      -0.08136400      -0.00027500      -1.01582370      -0.45524181      -0.28349348
Fe       9.34605000       7.55219000       3.04608000      -1.57311900      -1.03473800      -0.15487700      -0.81206230      -0.62585220       0.00114707
Fe       6.36389000       7.12183000       3.09324000       1.09683100       0.04242100      -0.12816300       1.21584688       0.17559111      -0.01922445
Fe       1.35866000       0.14865000       4.85122000       1.24564900       1.43265900      -2.24078300       0.01775749       0.77982255      -1.38767064
B        0.74424000       4.87887000       2.93866000      -1.13359500      -0.78566000      -1.94809000      -0.64484104      -0.41137819      -1.69262747
Si       0.41110000       1.07145000       2.73658000       1.34178700       0.50456200      -0.25058800       0.95997678       0.73056338      -0.60646574
Si       0.39736000       3.73439000       0.50956000      -1.07905800      -1.52336200       2.18566600      -0.57790690      -1.23196232       2.47331308
Si       9.29283000       2.08457000       0.89045000       2.55214100       0.43757800       0.40081500       2.21620056       0.61521055       0.52935726
Si       2.63700000       1.37373000       1.21644000      -1.44667700       0.88553200       2.69173100      -1.35914776       0.42324694       0.98566438
10
Lattice="11.0 0.0 0.0 0.0 11.0 0.0 0.0 0.0 11.0" Properties=species:S:1:pos:R:3:REF_forces:R:3:MACE_forces:R:3 config_type=Fe5B1Si4 REF_energy=-38.14997444 MACE_energy=-37.08878838860901 pbc="T T T"
Fe       0.55560000       8.19331000       7.06229000       0.60700700      -1.87987400       0.40247700       0.34795253      -1.29647470       0.41409547
Fe       0.49601000       2.54487000       7.78872000      -1.62914400       1.44061600       0.72816300      -1.46599439       1.41156054       0.57232349
Fe      10.07332000       3.88379000       9.42053000       1.49055100       0.96476400      -0.05327700       1.06089969       1.29975387       0.56844056
Fe       4.45932000       9.07691000       6.11289000       0.24660800      -0.52821700      -0.02378300       0.46798466      -0.54500287       0.01917462
Fe       9.54221000       0.53076000       0.28158000      -0.51209300       1.49842300      -0.39218500      -0.52607123       1.13071608      -0.21056799
B       10.69505000       5.70310000       8.40523000       0.71876200      -1.05034900      -0.26069900       1.02529594      -1.52838394      -0.62116585
Si       9.01619000       3.31434000       7.76349000       0.22101700      -0.39376100      -0.82483600       0.27968307      -0.29165792      -0.63902354
Si       1.50005000       6.10934000       7.36041000      -1.47354600       0.22179200       0.82993100      -1.91496090       0.31513339       0.76580764
Si       8.29851000       3.23195000      10.75936000       1.25238600      -0.70606300      -0.69191000       1.42646261      -0.81930389      -0.94112416
Si       3.13187000      10.62875000       6.05729000      -0.92154800       0.43266900       0.28612000      -0.70125200       0.32365944       0.07203976
10
Lattice="11.0 0.0 0.0 0.0 11.0 0.0 0.0 0.0 11.0" Properties=species:S:1:pos:R:3:REF_forces:R:3:MACE_forces:R:3 config_type=Fe5B1Si4 REF_energy=-39.54850766 MACE_energy=-38.74747712738928 pbc="T T T"
Fe       7.32260000       2.25273000       9.60151000      -0.81068000       1.95759200       1.52424100      -0.74465094       1.65908104       1.38755981
Fe       5.30456000       3.18059000       0.62935000       3.59407800       0.60301100       0.45004200       3.59316873       0.58027661       0.33962425
Fe       5.70290000       5.32015000      10.23784000      -0.55638700      -0.41691100      -0.58631200      -0.26604610      -0.73792689      -0.22233578
Fe       7.71673000       4.32859000       0.10409000      -1.51783000      -0.48364700      -0.94636500      -1.75596378      -0.71684261      -0.91573890
Fe       5.73415000       7.17747000       8.80515000      -0.19559000      -2.26799700       1.43769300      -0.45278437      -1.37531388       0.90631893
B        3.53335000       2.44513000       3.14396000       1.80602500       1.42469000       1.46529900       1.83236429       1.55365087       0.67299848
Si       3.05847000       4.99331000       9.56994000       1.58460600       0.22347600       0.29443400       1.77451189       0.03766031       0.59577694
Si       4.66874000       2.05360000       5.35076000      -1.23296500       0.33348000      -2.53096100      -1.18367330       0.42450208      -2.29330823
Si       3.35109000       3.37679000       0.23198000      -2.51854700       0.79060000      -0.76406600      -2.82466722       0.69510961      -0.29040256
Si       4.02675000       4.41289000       2.41329000      -0.15270900      -2.16429400      -0.34400600       0.02774081      -2.12019714      -0.18049294
10
Lattice="11.0 0.0 0.0 0.0 11.0 0.0 0.0 0.0 11.0" Properties=species:S:1:pos:R:3:REF_forces:R:3:MACE_forces:R:3 config_type=Fe5B1Si4 REF_energy=-30.22050192 MACE_energy=-38.35278929907364 pbc="T T T"
Fe       7.51027000      10.11418000       2.18625000      -1.69790900       1.72973200      -1.19644900      -0.20409140       2.06715067      -0.51916825
Fe       6.52329000       1.24583000       0.98294000       2.87583100      -1.88416600       0.59355300       1.87197335      -0.35829665       1.49032951
Fe       8.50320000       0.98219000       3.23617000       1.14940800      -1.93965800      -1.01181700       0.43540830      -2.61034301      -2.66096624
Fe       8.81725000       8.60479000       1.96311000       1.70133000      -1.33465300       0.85149000       0.59186405      -0.42479424      -0.25525082
Fe       9.16079000       2.26416000       1.64872000      -0.92180800       1.06168500      -1.01542500      -1.01263467       0.59131996      -0.53037370
B        8.94441000       4.16897000      10.47399000      -1.12511400       0.54375800       0.63670800      -0.17517526       0.17978890       1.16695132
Si      10.42398000       4.23416000       1.05026000      -1.52480000      -0.05410100      -1.01659500      -1.95623286      -0.80742345      -1.36879864
Si       7.56198000       2.31002000       4.34386000      -1.29363800       1.80115300       0.97958300      -1.03134502       1.60755813       0.64995724
Si       8.52672000       8.61906000      10.86161000      -0.94443500       0.65405000      -0.31886100      -0.25492800       0.42150046       0.90137290
Si       6.81456000       4.96874000       9.06450000       1.78113500      -0.57779900       1.49781200       1.73516152      -0.66646076       1.12594666
10
Lattice="11.0 0.0 0.0 0.0 11.0 0.0 0.0 0.0 11.0" Properties=species:S:1:pos:R:3:REF_forces:R:3:MACE_forces:R:3 config_type=Fe5B1Si4 REF_energy=-36.59236839 MACE_energy=-40.24331475109051 pbc="T T T"
Fe       3.58274000      10.79851000      10.73667000       0.11897900       0.22630100      -0.04976800      -0.00000000      -0.00000000      -0.00000000
Fe       1.22875000       2.49300000       7.21708000       2.26097500      -1.53625800       1.07649700       2.39377493      -1.40268681       1.50369170
Fe       0.83190000       3.93076000       3.48688000       1.35086000      -1.69250200       0.45489600       1.21274733      -1.12542987       0.63742903
Fe       9.39560000       2.93064000       6.23859000      -2.27414300      -0.91782300      -0.86979000      -3.81014175      -0.71854963      -1.17780836
Fe       1.68648000       4.78764000       5.33563000      -2.42207400      -1.78775100      -0.34755700      -1.73246749      -1.57164667       0.11003483
B        0.09146000       3.23421000       6.27209000       0.33374200       3.18943500      -3.08739300       1.00595718       3.27340546      -3.97610379
Si      10.14804000       1.29848000       4.70398000      -0.27194000       2.69997500       0.88966000       0.28586711       2.35368191       1.03991758
Si       7.91960000       4.68330000       6.38399000       1.00571800      -0.89791700      -1.90531900       1.00997501      -0.87773971      -1.49582725
Si       7.87407000       3.80560000       3.83659000       1.69436900       0.65761100       2.09344900       1.51344268       0.32126023       1.92402026
Si      10.18862000       4.97429000       4.13294000      -1.79648600       0.05892800       1.74532400      -1.87915501      -0.25229491       1.43464599
10
Lattice="11.0 0.0 0.0 0.0 11.0 0.0 0.0 0.0 11.0" Properties=species:S:1:pos:R:3:REF_forces:R:3:MACE_forces:R:3 config_type=Fe5B1Si4 REF_energy=-37.97135349 MACE_energy=-36.34900304462999 pbc="T T T"
Fe       9.03194000       7.52207000       3.76953000      -0.41692800       1.06213800       1.36215600      -0.12872798       1.62441671       1.37109883
Fe      10.13763000      10.16701000       4.97367000      -1.48414600      -0.40832500      -0.11078200      -1.66429106      -1.06901313      -0.31998819
Fe       4.72985000       7.86062000       7.54580000      -0.46341600      -0.84233600       0.25668000      -0.62981068      -1.26487425      -0.35172022
Fe       8.27206000       8.93115000       5.41966000       2.10203900       0.88604100      -1.49179500       1.57261777       0.69318222      -1.64576139
Fe       4.77388000       2.87329000       5.35297000      -0.27504900      -0.53922100      -0.84728100      -0.76370500       0.22332194      -0.16723635
B        4.61354000       3.86066000       6.74103000      -0.14362800      -0.14915200      -1.57005500      -0.54717130       0.93341854      -0.01518222
Si       1.64433000       3.13639000       3.91354000       3.75707800      -0.87803400      -0.36408100       3.85225735      -0.91963286      -1.11447610
Si       3.74801000       5.66030000       6.94882000       0.45210300       0.36957600       0.68487900       1.22701465       0.16857059       0.20205953
Si       8.69515000       0.60160000       4.24738000      -0.18983800      -0.10747800       0.51028900       0.31732554      -1.11447184       0.61660475
Si      10.87890000       3.62141000       4.73344000      -3.33821400       0.60679200       1.56999000      -3.23550929       0.72508209       1.42460136
10
Lattice="11.0 0.0 0.0 0.0 11.0 0.0 0.0 0.0 11.0" Properties=species:S:1:pos:R:3:REF_forces:R:3:MACE_forces:R:3 config_type=Fe5B1Si4 REF_energy=-19.85588119 MACE_energy=-31.408815726088225 pbc="T T T"
Fe       0.38446000       1.64586000       0.19247000      -0.31544900       0.99906300      -1.16531000      -0.37644352       0.12158537      -0.89182086
Fe       4.73202000       7.12132000       7.31276000       0.31929800      -0.23556100       1.39875500       0.13507449       0.39219971       1.36540887
Fe       0.36789000       2.73674000       6.71847000       0.18431700      -0.99436400      -3.07194200      -0.79749852      -1.22707589      -2.10452091
Fe      10.07665000       2.07009000       8.11408000      -1.05625300       0.13475800      -0.04421700      -0.36185639      -0.77439228       0.45200765
Fe       0.10300000      10.83360000       4.98934000      -0.79988200       1.03958000       0.82376600      -1.19036210       2.01387137       0.69387143
B        9.83138000       1.34479000       5.59342000       2.73003300      -1.60069300       1.71860100       3.29952774      -1.17333679       3.15985817
Si       8.95511000       2.30296000       4.33786000      -0.13907800       0.36771900       0.11506400      -0.57336720       1.03934822      -1.30939547
Si       3.99539000      10.22212000       8.61506000      -0.05248500      -0.48071600       0.18941400       0.22929553      -0.96574778      -0.40628627
Si       2.69021000       5.15166000      10.73011000       1.27722300       0.17680000       0.10453800       1.48868990       0.16494175      -0.33741783
Si       5.75937000       5.49395000      10.03068000      -2.14772600       0.59341400      -0.06866800      -1.85305993       0.40860632      -0.62170477
10
Lattice="9.0 0.0 0.0 0.0 9.0 0.0 0.0 0.0 9.0" Properties=species:S:1:pos:R:3:REF_forces:R:3:MACE_forces:R:3 config_type=Fe5B1Si4 REF_energy=-45.52219027 MACE_energy=-43.2174197419225 pbc="T T T"
Fe       5.95652000       4.23215000       1.06155000      -0.98767900      -0.50029400      -0.25142400      -1.09609481      -0.85066792      -0.49269461
Fe       5.13270000       1.30654000       4.87525000      -1.02972800       1.07694500      -1.04271400      -0.92742888       1.12525076      -0.95419282
Fe       0.86010000       2.84042000       4.86982000       1.78090900      -0.14036100      -0.68290200       1.13297083       0.05716094      -0.31439733
Fe       4.80846000       2.20734000       0.33653000      -0.70934400       1.79820400       0.47599400      -0.50467244       1.50843182       0.58871642
Fe       4.84818000       3.73073000       2.87016000      -1.11599800      -1.47444400      -2.61602900      -0.59084613      -0.77027420      -3.50157320
B        3.56051000       3.01373000       4.13091000      -3.27582500      -2.90917300      -1.74282900      -3.20023370      -2.79120695      -1.36004114
Si       3.41138000       1.28778000       2.26512000       0.95707700       2.37405100       0.97860500       1.06839767       2.20729457       0.37048086
Si       5.16668000       2.63723000       6.68984000       0.07413900      -1.78642600       3.36318600       0.09674213      -2.27325847       4.40714676
Si       3.08125000       3.86721000       0.97989000       1.93930500      -1.04831500       0.87154200       1.96043815      -1.21667193       0.98380244
Si       4.99984000       3.77363000       4.95280000       2.36714300       2.60981200       0.64657100       2.06072719       3.00394137       0.27275262
10
Lattice="11.0 0.0 0.0 0.0 11.0 0.0 0.0 0.0 11.0" Properties=species:S:1:pos:R:3:REF_forces:R:3:MACE_forces:R:3 config_type=Fe5B1Si4 REF_energy=-40.7418507 MACE_energy=-35.33991268511349 pbc="T T T"
Fe       5.85212000       3.50546000       5.08734000       2.15677100      -0.79414500      -0.20894700       1.34588063      -0.42336264       0.24917490
Fe       4.00684000       5.71103000       1.22208000       0.17321900       0.19260900       1.30384500       0.15326244       0.35014023       1.42508727
Fe       8.00148000       8.34774000      10.98030000      -0.08363800      -0.04550400       0.02901100      -0.00000000      -0.00000000      -0.00000000
Fe       7.35073000       2.40140000       6.64128000       0.77906300       1.12479900      -0.71056100       1.04612358       1.48830153      -1.27629231
Fe      10.15241000       4.26124000       5.16236000      -1.21868700      -1.07976300       1.03424500      -1.53787361      -1.13038404       0.97739243
B        7.50939000       3.71850000       4.30627000       0.81775400       0.01191000       1.18846500       0.62044153      -0.24091589       1.61419472
Si       0.88259000       3.63568000       4.13155000       0.18457900       0.08807600       0.63549900       0.72897097       0.20371394       0.34495191
Si       4.29968000       6.34926000       4.01086000      -0.04470200      -1.65685100      -0.27530200      -0.13333266      -1.94521809      -0.51880516
Si       3.89182000       4.30839000       5.36988000      -1.81091900       1.59107900      -0.75492800      -1.03639011       1.30356815      -1.05427029
Si       9.83466000       2.97427000       7.53103000      -0.95344000       0.56779200      -2.24132700      -1.18708277       0.39415681      -1.76143347
10
Lattice="9.0 0.0 0.0 0.0 9.0 0.0 0.0 0.0 9.0" Properties=species:S:1:pos:R:3:REF_forces:R:3:MACE_forces:R:3 config_type=Fe5B1Si4 REF_energy=-42.65563223 MACE_energy=-42.456497314738556 pbc="T T T"
Fe       5.47398000       6.28103000       3.23251000       0.28355300       0.05833700       0.13117200      -0.49646129      -0.76406145      -0.48133481
Fe       3.48819000       2.94480000       4.89866000      -0.87509200      -0.04370600       2.15230300      -0.98910088       0.46413156       0.36886332
Fe       8.33854000       1.27421000       2.74786000      -0.46364400       1.92715600       1.33564000      -0.44890125       1.71448637       1.48354289
Fe       6.99962000       2.76087000       4.14267000      -0.44746500       1.63766400       1.88762100      -0.65407360       1.38450571       2.18676396
Fe       1.77962000       3.26723000       3.35280000      -0.52218800      -0.67489800       0.43259300       0.46055624      -0.52814643       0.70697707
B        4.62666000       4.86714000       2.55939000       0.26614600      -1.03752000       0.98811100      -0.07356074      -1.30869425       1.40038378
Si       4.18354000       2.39378000       2.99079000       0.43795500       1.50930000      -2.71878500      -0.50088177       1.73999499      -1.48433515
Si       8.55432000       3.88894000       3.61944000       3.24804800       2.01892900      -1.57919700       3.29186788       1.35508299      -1.64834114
Si       5.93563000       1.17498000       3.69373000      -1.91994400      -5.30800600      -1.48876300      -1.01031046      -4.00417089      -1.20007958
Si       0.45419000       2.68863000       5.46192000      -0.00736800      -0.08725600      -1.14069400       0.42086586      -0.05312860      -1.33244034
10
Lattice="11.0 0.0 0.0 0.0 11.0 0.0 0.0 0.0 11.0" Properties=species:S:1:pos:R:3:REF_forces:R:3:MACE_forces:R:3 config_type=Fe5B1Si4 REF_energy=-34.53347477 MACE_energy=-33.87761350733839 pbc="T T T"
Fe      10.38446000       0.44273000       4.17388000      -0.78237800      -1.86098300       1.10984900      -0.53380569      -2.04210465       1.42908802
Fe       5.58579000       5.13476000       2.28318000      -1.35183300       0.99168200      -0.54319900      -0.88885423      -0.23146961      -0.14523224
Fe      10.26893000       9.29847000       6.65501000       0.41344200       0.04548900      -2.04786900       0.36379585       0.17920808      -2.74250254
Fe       8.86095000       8.11141000       4.18070000       1.29133000       1.24914000       1.04926000       1.48233114       1.23295903       1.14357199
Fe       7.69214000       0.53975000       5.12514000       1.95509500      -0.60911200      -1.00813900       1.28787850      -0.34358897      -0.35981359
B        2.74748000       4.83778000       0.91630000       1.39196400      -0.12393600      -0.20196400       0.99882149      -0.01544951       0.12786658
Si       6.81162000       1.90994000       1.53462000      -0.52184800       1.18261600      -0.41056100      -0.53919612       1.71713189      -0.43826794
Si       6.12115000       4.10888000       0.52255000       1.58173000      -1.75162600       1.46051100       1.66988804      -1.95346345       0.45352540
Si       0.91081000       9.09353000       4.86613000      -2.08485700       0.69467200       0.51855400      -2.60099629       0.97476638       0.52640611
Si       4.16380000       4.58033000      10.67633000      -1.89264600       0.18205800       0.07355800      -1.23986269       0.48201080       0.00535820
10
Lattice="11.0 0.0 0.0 0.0 11.0 0.0 0.0 0.0 11.0" Properties=species:S:1:pos:R:3:REF_forces:R:3:MACE_forces:R:3 config_type=Fe5B1Si4 REF_energy=-31.88716106 MACE_energy=-35.756530157669815 pbc="T T T"
Fe       1.14116000       9.49468000      10.94139000       1.03161900      -0.44995100      -0.39877100       0.71543672      -1.06558871      -0.69578348
Fe       7.21367000       6.98307000       4.70883000      -2.94301400      -1.46688800       0.65014200      -1.66963441      -0.14517395       0.00666383
Fe       4.99485000       7.56523000       3.28858000       0.74465000      -0.23543700      -0.70888800       0.64945058      -0.52577700      -0.18388933
Fe       5.11075000       7.78078000       8.02245000      -0.73545200      -0.54142400       0.97332500      -0.87419435      -1.10597802       0.51082982
Fe       5.02580000       6.08327000       6.14288000       1.53107200       2.07986600      -0.44355300       0.87455573       1.62930194      -0.53390703
B        6.46739000       9.52531000       1.42776000      -0.83213000      -0.78314200       0.21534400      -1.04971068      -0.96961437       0.22644781
Si       3.36056000       5.78054000       9.88043000      -0.35408900       0.86759200       0.70337500      -0.12643709       1.77118899       0.49830841
Si       3.68875000       6.60974000       1.41965000       0.14004300       0.02695200      -1.00259500       0.56722691       0.43449295      -0.22478508
Si       3.95884000       8.08391000      10.56775000       0.21456400       0.93303900      -0.26874100      -0.35494629      -0.19266519      -0.72854592
Si       1.56076000       7.66233000       9.57449000       1.20273800      -0.43060700       0.28036300       1.26825287       0.16981335       1.12466095
10
Lattice="11.0 0.0 0.0 0.0 11.0 0.0 0.0 0.0 11.0" Properties=species:S:1:pos:R:3:REF_forces:R:3:MACE_forces:R:3 config_type=Fe5B1Si4 REF_energy=-2.43842541 MACE_energy=-39.80136561602019 pbc="T T T"
Fe       8.11536000       3.96737000       6.09845000       2.52379000       3.39438000      -0.10855200       1.53737848       2.74824816      -0.41078967
Fe       4.00538000       4.00868000       8.30741000       1.03860200       0.49749300      -0.86210200       0.65426396      -0.21758632      -0.62890614
Fe       6.21734000       5.49238000       4.54674000      -1.90078500      -0.53233000       2.45773000      -3.20195594      -1.73131521       1.16044316
Fe       6.37295000       3.21617000       6.01003000      -4.31429000      -0.62928100      -0.35144300      -3.18080116       0.31031129      -0.51466632
Fe       4.28107000       3.14598000       4.09228000       1.68301600       0.43320300       1.57416800       1.38617060       0.75857935       0.82023251
B        8.65122000       7.09833000       7.78974000      -0.81588400      -0.96711600      -2.45875700      -0.15631249      -0.43647943      -0.73459154
Si       8.15838000       5.95236000       4.46257000       2.65955200       1.43037300       0.95638300       3.49700246       0.43002231       1.09417898
Si       7.04021000       6.67768000       6.73922000       0.09201500      -1.71899800      -1.45860000       0.63498562      -1.06717297      -0.96010582
Si       9.92269000       6.79012000       6.33039000      -1.33422700      -1.06385500      -1.26044000      -1.18298965      -0.48237179      -0.15850948
Si       6.58826000       7.17809000       3.12641000       0.36821200      -0.84387000       1.51161300       0.01225812      -0.31223539       0.33271430
10
Lattice="6.0 0.0 0.0 0.0 6.0 0.0 0.0 0.0 6.0" Properties=species:S:1:pos:R:3:REF_forces:R:3:MACE_forces:R:3 config_type=Fe5B1Si4 REF_energy=-53.79328822 MACE_energy=-47.169343819654756 pbc="T T T"
Fe       0.50996000       2.31585000       5.10298000      -1.26599000      -0.50951400      -1.36914100      -1.41458065      -0.16510765      -1.02735420
Fe       4.41281000       4.39623000       3.51801000       2.05066400       2.95138500      -2.14682400       2.07279555       2.73477261      -1.78895585
Fe       1.31233000       5.37312000       2.96679000      -9.66985400       0.21848200       6.64889800      -8.78281034       0.20252118       6.53109189
Fe       5.30196000       5.42046000       5.41384000       1.20364700       0.82237100      -1.12375000       0.91024561       0.61591377      -1.13788041
Fe       2.97556000       4.92730000       5.11455000      -0.79718400       0.13310700       0.96147400      -0.46510225      -0.21000857       0.37431366
B        5.46078000       0.52907000       3.64926000      -0.06089300       0.25590500       0.66478200      -0.14269821      -0.02071703       0.62788192
Si       2.81628000       5.37752000       2.00180000       6.85751800      -0.72904200      -5.53711500       6.16965661      -0.38073204      -5.13241786
Si       3.67557000       2.72706000       4.43876000      -0.82806600      -3.20205400       1.23328500      -0.68032666      -2.97307966       0.93876205
Si       4.50462000       4.23004000       1.13387000       0.98654700      -1.71437000      -0.38631400       1.38359831      -0.95941769      -0.45006021
Si       3.47649000       1.50306000       2.12993000       1.52361000       1.77373100       1.05470500       0.94922203       1.15585508       1.06461900
10
Lattice="12.0 0.0 0.0 0.0 12.0 0.0 0.0 0.0 12.0" Properties=species:S:1:pos:R:3:REF_forces:R:3:MACE_forces:R:3 config_type=Fe5B1Si4 REF_energy=-45.66921287 MACE_energy=-39.595765330101436 pbc="T T T"
Fe       4.03767000       2.41086000       6.51410000       1.86803300       0.00585300       0.51063200       1.80405922      -0.49646421       0.36524283
Fe       4.79727000      11.75927000       9.09533000       0.54049700       0.45513700      -1.32376800       0.39886880       0.25121124      -0.83515539
Fe       5.80034000       0.20229000       7.24671000      -0.98588000       0.20802500       0.94137200      -1.07464436       0.62506090       0.50565435