15
Lattice="5.664536 0.0 0.0 0.0 5.664536 0.0 0.0 0.0 5.664536" Properties=species:S:1:pos:R:3:REF_forces:R:3:MACE_forces:R:3 config_type=Fe13Si1B1 REF_energy=-108.19731369 MACE_energy=-58.15103498634387 pbc="T T T"
B        4.05901000       2.70568000       1.01305000      -1.63855300      -0.82904000       0.73367400      -1.66581758      -0.39094591       0.21827258
Si       2.82856000       0.10655000       3.62968000      -1.37485700       1.04288500       1.12851000      -0.90128108       0.53894597       0.68863493
Fe       2.58297000       1.18377000       1.20948000       0.93367000       0.14656100       0.38941200       1.88789527      -0.30356066      -0.29259287
Fe       0.38153000       0.68989000       3.08804000       0.88723900       3.84366500       0.15858400       0.55237953       1.64290805       0.53178389
Fe       1.54589000       2.38203000       4.72041000      -2.07199500      -0.40415400      -0.21731400      -1.71736107      -1.32614067      -0.26396612
Fe       0.00965000       3.55673000       0.57847000       1.87002200       0.46818400      -0.57360300       0.50612469       0.13578278       0.19142512
Fe       4.86453000       2.71686000       2.75028000       1.57660800      -1.70083300       1.51404400       0.58504153      -0.83769579       1.16679302
Fe       4.62966000       0.98828000       5.06676000       0.07922500       1.31640700       1.29952100      -0.74885160       1.49747793       0.39021953
Fe       0.62475000       4.47163000       2.76945000       1.95380600      -3.21231900      -1.53544400       1.69111603      -1.12810237      -1.22610859
Fe       4.87774000       4.67993000       4.41653000      -0.64493200      -0.53503200       0.30435400      -0.61106944      -0.27992216      -0.25892281
Fe       3.59664000       2.87221000       4.83153000       0.23532500      -0.37357900      -1.60523300       0.40778876       0.26184740      -0.57574152
Fe       0.66156000       0.50203000       0.73880000      -0.79576700      -0.85035100      -0.29863700      -1.04562303      -0.96101598      -0.18614771
Fe       2.16986000       4.37529000       0.15492000      -0.00013300       0.94038800       0.69583500       0.81723799       0.77939472       0.72042930
Fe       3.84648000       4.71531000       2.05312000       0.75417200       0.77170900      -2.19861800       1.30970381       0.34843942      -1.34434135
Fe       2.60819000       2.98871000       2.55518000      -1.76382900      -0.62449100       0.20491400      -1.06728381       0.02258725       0.24026262
15
Lattice="5.664536 0.0 0.0 0.0 5.664536 0.0 0.0 0.0 5.664536" Properties=species:S:1:pos:R:3:REF_forces:R:3:MACE_forces:R:3 config_type=Fe13Si1B1 REF_energy=-108.15566798 MACE_energy=-58.95744349010505 pbc="T T T"
B        4.14873000       2.95379000       1.06658000       0.16200100      -0.29917000      -0.39394100       0.37659673      -0.33724837      -0.75716197
Si       3.70970000       1.75376000       4.70342000       2.39954500       1.99334400       0.69658000       0.88307696       1.36962768       0.33204584
Fe       0.77141000       5.48369000       0.61772000       0.15863900      -0.70463600       0.73580300       0.62458875      -0.75289541       0.30777636
Fe       2.70222000       5.62328000       2.66112000      -2.84701800       1.11988600      -2.77526600      -2.01209635       1.33550687      -1.19954227
Fe       2.40590000       1.49012000       0.76033000       2.44811900      -1.09619800       2.05304000       2.47786990      -0.45307640       0.98425611
Fe       0.05981000       0.25678000       4.08407000      -0.72088300      -0.40435400      -1.12965000      -0.39042140       0.00018337      -0.62251705
Fe       2.69016000       5.46683000       4.60121000      -0.81406600      -1.20768000       2.79556400      -0.27941218      -0.13282541       1.23622793
Fe       1.47386000       1.76151000       4.03878000       0.25632200       2.31886200      -0.70750300       1.16367565       1.58223687      -0.04263492
Fe       5.58209000       3.47185000       2.53703000       2.04828400       0.56513400      -0.37619200       1.47468713       0.33018023       0.37325970
Fe       2.39981000       3.74553000       0.37431000      -0.23425500       0.56240000       0.37900500       0.38664436      -0.39929949       0.34567224
Fe       4.35312000       1.55651000       2.64463000       0.99871600      -1.26274600      -2.03362100       0.30780249      -0.47711225      -1.28992845
Fe       4.71996000       4.32124000       4.97431000      -0.09930100      -2.16645100       0.36829600      -0.85737007      -2.67084501       0.39486265
Fe       4.35696000       5.05523000       1.41829000       0.42683500       0.31250100      -0.90165400      -0.24758667       0.45535046      -0.74340878
Fe       0.47139000       2.05266000       0.60057000      -2.75315200       0.98470800      -0.10508100      -2.73572461       1.46300754      -0.28055984
Fe       3.41003000       3.62129000       2.91823000      -1.42978400      -0.71560000       1.39462200      -1.17233070      -1.31279070       0.96165246
15
Lattice="5.664536 0.0 0.0 0.0 5.664536 0.0 0.0 0.0 5.664536" Properties=species:S:1:pos:R:3:REF_forces:R:3:MACE_forces:R:3 config_type=Fe13Si1B1 REF_energy=-107.93807169 MACE_energy=-56.786252375552465 pbc="T T T"
B        3.89991000       3.42526000       0.45422000       0.11547000      -0.03553900       1.12451100       0.54017900      -0.17893603       2.10222041
Si       3.48762000       0.16630000       4.61337000       0.32574800       0.46308000      -0.01786500      -0.39843292       0.16174442       0.22927531
Fe       2.84778000       1.82037000       0.82228000      -0.98232500      -1.42221600      -1.89337000      -0.99981216      -0.77414079      -2.39326412
Fe       1.34857000       0.81784000       2.30075000      -0.53643500       0.46265000      -1.19653800      -0.06937294       0.24622731      -1.34478892
Fe       1.57642000       1.26355000       4.33118000       0.04619000       0.17232100       0.29400800       1.27466098      -0.19287546       1.19564369
Fe       0.65713000       2.94926000       0.95396000      -1.72120200      -1.22782100       0.66296100      -1.81683768      -0.74190297       0.42653834
Fe       4.05988000       1.97076000       2.38888000       1.24013900      -1.25976700       1.55714700       0.96263743      -0.85947660       1.06049190
Fe       5.41523000       1.91313000       4.86891000      -2.57043500      -0.52568200      -0.40262900      -3.50281149       0.03781305       0.05388260
Fe       1.35795000       4.61467000       3.62292000      -1.17710100      -0.19986100       1.26666800      -0.69567240       0.42634294       0.85587700
Fe       4.95776000       4.27854000       4.85033000       2.20080800       0.77958800      -0.24901600       1.22242379       0.12760199      -0.05653983
Fe       2.90817000       3.15860000       4.25698000      -0.87756600      -0.39846100       1.25184100       0.46636627      -0.42972623       1.17655358
Fe       4.97903000       5.64594000       1.36431000      -0.69131800      -0.04726100      -0.44322300      -0.94080495       0.18249123      -1.02177100
Fe       1.21860000       5.04312000       0.28941000      -0.01329800       1.97019200      -1.42146800       0.65761733       1.59671829      -1.51263223
Fe       4.19049000       3.99341000       2.69223000       2.99720200       1.59092800      -0.45710200       1.26954651       1.33516968      -0.55061523
Fe       2.24232000       4.14646000       1.80095000       1.64412400      -0.32215200      -0.07592500       2.03031322      -0.93705085      -0.22087151
15
Lattice="5.664536 0.0 0.0 0.0 5.664536 0.0 0.0 0.0 5.664536" Properties=species:S:1:pos:R:3:REF_forces:R:3:MACE_forces:R:3 config_type=Fe13Si1B1 REF_energy=-111.97852358 MACE_energy=-62.21568861226313 pbc="T T T"
B        0.06916000       5.66432000       5.18689000       0.12008200      -0.64043800       0.01360000       0.24714793      -0.89574280      -0.16566889
Si       0.02740000       2.72248000       2.59682000      -0.95092500       0.36379500       0.29566700      -0.80930096       0.38969904       0.29255964
Fe       0.14116000       5.54768000       2.85133000       0.08282300      -0.00674100       0.52027800      -0.59318994       0.28559898       0.54290144
Fe       5.56722000       2.97052000       5.53670000      -0.67309900       0.24460700       0.18564600       0.14996339      -0.04750482       0.25819368
Fe       2.56501000       0.00405000       5.40440000       0.68434000      -0.27592000       0.60718700       0.38507633      -0.29736018       0.70753784
Fe       2.97079000       2.77487000       5.60913000       0.61990200      -0.30745300       0.59180600      -0.49527602      -0.06588031      -0.04267531
Fe       3.14055000       2.58779000       2.39876000      -0.26535600       0.46856000       0.15364600      -0.40155612       0.33281871       0.55050561
Fe       1.27023000       1.29362000       1.29220000       0.59662900      -0.36144800      -0.82067800      -0.11954871       0.03177645      -0.94887492
Fe       1.26884000       1.40412000       4.24821000      -0.00500300       0.79776500      -0.57479700      -0.10127187       1.08017985      -0.58391656
Fe       1.43809000       4.26211000       1.36341000       0.07769500      -0.05884300      -0.22592600      -0.04629375      -0.39748129      -0.30829859
Fe       1.52070000       4.14480000       4.13170000      -0.18321100      -0.27105400      -0.71528600      -0.71304708      -0.59642231      -0.40780879
Fe       4.46936000       1.09579000       0.98330000      -0.11971100       0.01004100       0.24750400       0.57377455       0.16499129      -0.07266852
Fe       4.16783000       1.22547000       4.11325000       0.42899800      -0.08684700      -0.08842400       1.24597809       0.06387013       0.24578350
Fe       4.22673000       4.46813000       1.30140000       0.09689500      -0.37725000      -0.41990000       0.39575824      -0.45649424      -0.24522659
Fe       4.20815000       4.21553000       4.01300000      -0.51005900       0.50122500       0.22967700       0.28178594       0.40795149       0.17765646
15
Lattice="5.664536 0.0 0.0 0.0 5.664536 0.0 0.0 0.0 5.664536" Properties=species:S:1:pos:R:3:REF_forces:R:3:MACE_forces:R:3 config_type=Fe13Si1B1 REF_energy=-111.93959828 MACE_energy=-61.909042434240476 pbc="T T T"
B        0.52210000       0.05440000       5.04153000      -0.83789800      -0.96014800      -0.42271900      -0.30015983      -0.89042703      -1.03965136
Si       5.59498000       2.75302000       2.63746000      -0.41285400      -0.16722200       0.32382300      -0.13910697      -0.23164213      -0.15116650
Fe       0.17766000       0.05624000       2.77011000      -0.22089500       0.44737300       1.17937900      -0.40907008       0.07312199       1.22871257
Fe       5.59682000       2.78032000       5.61495000      -0.22239300       0.41310500      -0.03657000      -0.00113076       0.24871308      -0.50554682
Fe       2.71989000       5.37982000       5.43745000       0.17724800       0.17436200       0.47840000      -0.83800318       1.07491934       0.19407163
Fe       2.70157000       2.72483000       5.65192000       0.89303700       0.73165300       0.81071700       0.79003073       0.55525872       0.23418169
Fe       2.97278000       2.68063000       2.60608000       0.64664100       0.39382500      -0.89779500       0.69539639       0.76900949      -0.75340875
Fe       1.04462000       1.15381000       0.98518000       0.85892600      -0.28038300       0.02628300       0.86390355       0.33863754       0.39083795
Fe       1.65813000       1.50296000       3.98982000      -0.38663100      -0.26210300      -0.11433700      -1.20054314      -0.45816582       0.54087532
Fe       1.30631000       4.30849000       1.24352000      -0.41412900       0.11159100       0.24697100      -0.44244451      -0.28699513       0.01823542
Fe       1.58576000       4.06734000       3.99489000      -1.17533100      -0.00634600      -0.85725300      -1.37437381       0.04725837      -0.21089715
Fe       4.12820000       1.13618000       1.10587000       0.62554700       0.31979100       0.22031500       0.78396648       0.42340961       0.39599209
Fe       4.25787000       1.24949000       4.17529000      -0.08913900      -0.07677300       0.23295600       0.63323623       0.09736875       0.27842763
Fe       4.35495000       4.45297000       1.34581000      -0.13361000      -0.53467800      -0.51744000       0.01385197      -1.08470474      -0.06734290
Fe       4.41108000       4.43949000       4.32316000       0.69148200      -0.30404700      -0.67272800       0.92444692      -0.67576203      -0.55332082
15
Lattice="5.664536 0.0 0.0 0.0 5.664536 0.0 0.0 0.0 5.664536" Properties=species:S:1:pos:R:3:REF_forces:R:3:MACE_forces:R:3 config_type=Fe13Si1B1 REF_energy=-111.86184603 MACE_energy=-59.968827525164045 pbc="T T T"
B        1.50863000       1.78767000       4.90152000      -0.44122900      -0.13378600       0.30200900       0.15576531      -0.45531410       0.25213876
Si       4.79549000       2.24346000       2.10133000      -2.02834800      -2.06166200      -2.37230900      -0.74384842      -0.78229677      -1.57606533
Fe       3.20380000       0.75276000       3.12970000      -0.26094900      -0.46491400       0.88121400       0.11544689       0.15856828       1.77442620
Fe       2.86828000       3.52346000       0.83472000       0.63525800      -0.40693500      -0.10677300       0.28899296      -0.91669181      -0.57253660
Fe       0.30208000       0.41203000       3.59178000       0.43152100       1.99959300       0.71104900       0.43021481       2.02071420      -0.00783777
Fe       4.64149000       4.82814000       4.64319000      -2.32204000      -0.32641000       1.26424000      -2.68927203       0.26587027       1.03728314
Fe       1.38623000       5.04883000       1.95913000       0.13404600      -0.76597900       0.26900800       0.41652928      -1.06541031       0.47681623
Fe       0.01651000       0.69762000       0.56316000       0.43357300       0.50429600      -0.59615700       0.53849353       0.81306901      -0.45814490
Fe       1.71843000       1.81951000       1.96274000      -0.50569400       0.44278300      -1.08150200      -1.59297438       0.68012784      -0.81734697
Fe       2.49328000       3.31853000       3.75571000       0.60663900       0.53722000       0.22889400       0.50264056      -0.04877834       0.55870179
Fe       0.35204000       3.39611000       0.17394000       0.28417100      -0.58935200       0.45847800       0.50043441      -0.95262573       1.06343365
Fe       0.11270000       3.44811000       3.40342000       2.52442400       0.78461300       1.86263000       1.67577376      -0.20325738       0.44233481
Fe       4.37430000       4.86511000       1.96411000       0.02203300      -0.44143500      -0.21812100       0.91896601      -0.72980202       0.12002822
Fe       1.91304000       5.29856000       5.45252000       0.85584700       1.12077600      -1.36953800       0.57378999       1.12513140      -2.01137022
Fe       3.73798000       1.56980000       5.38787000      -0.36925300      -0.19880800      -0.23312100      -1.09095268       0.09069545      -0.28186101
15
Lattice="5.664536 0.0 0.0 0.0 5.664536 0.0 0.0 0.0 5.664536" Properties=species:S:1:pos:R:3:REF_forces:R:3:MACE_forces:R:3 config_type=Fe13Si1B1 REF_energy=-121.96103282 MACE_energy=-60.12376700825243 pbc="T T T"
B        1.89945000       0.62627000       3.85277000      -2.50069800       2.16966800      -1.53918900      -1.87193708       1.86396626      -0.05645417
Si       0.20120000       2.04269000       2.64503000       1.02931600      -0.66199100      -2.72694900       0.31209485      -0.42528302      -1.30671355
Fe       2.66066000       5.42797000       2.26357000       0.53979700      -0.03646200      -1.31830900       0.42031778      -0.49633492      -0.77502803
Fe       2.90276000       2.67008000       2.15492000      -1.83815700      -0.38139400      -2.84113500      -1.91394520       0.04747029      -1.40598137
Fe       3.76617000       1.41579000       3.61058000       1.59818700      -1.99316500       0.96094000       1.68314989      -0.91932746       0.65187752
Fe       4.35629000       3.78643000       3.20548000      -0.08184500       1.05317100       0.76552100      -0.25293600       0.48386135       0.78442083
Fe       4.47628000       4.06991000       0.64852000      -0.83953300      -0.22453300       0.86736600      -1.06569109      -0.01779522       0.13782845
Fe       4.19523000       1.12987000       0.84517000       0.20926900       0.78044000      -1.95195400       0.43442297       0.10671631      -0.62372469
Fe       1.20944000       0.98558000       0.54562000       0.36331500       0.64694800       1.15320100       0.49546765       0.63478213       0.28793240
Fe       2.93679000       5.24715000       4.85612000       1.78737200      -1.05335100       3.04321700       0.61082013      -0.45211078       1.27038403
Fe       2.46429000       3.02068000       4.78866000      -0.08418600      -0.93215200       0.71303400       0.01089580      -1.11698339       0.09842329
Fe       5.64539000       2.77685000       4.69631000       0.33002600      -0.76378800       3.33994500       0.52745425      -0.68347636       1.39263368
Fe       1.14045000       3.92385000       0.99225000      -0.27335200       0.02348800       0.25089500       0.21081568       0.09079333      -0.37110853
Fe       0.17432000       5.38924000       4.59788000      -0.87103600      -0.20642700       0.99417600      -0.45434877      -0.31546596       0.56788267
Fe       5.41134000       5.44443000       2.36685000       0.63152700       1.57954900      -1.71076000       0.85341914       1.19918742      -0.65237254
15
Lattice="5.664536 0.0 0.0 0.0 5.664536 0.0 0.0 0.0 5.664536" Properties=species:S:1:pos:R:3:REF_forces:R:3:MACE_forces:R:3 config_type=Fe13Si1B1 REF_energy=-109.57699008 MACE_energy=-59.775341857578695 pbc="T T T"
B        1.60964000       1.20953000       3.30762000      -0.01479600      -0.54483200       0.36412700      -0.15918525       0.19936998      -0.04095146
Si       1.95419000       3.78303000       0.40477000       2.58923000       0.78612200      -1.61162900       1.52951173      -0.00223576      -0.43326461
Fe       3.57229000       4.89724000       1.78218000      -0.69680300       0.94883800       2.04020100      -0.78720624       0.51459286       1.02226273
Fe       3.21513000       2.00319000       1.86162000       1.30615200      -1.04311700      -1.34636300       0.69649579      -0.67715427      -0.40899546
Fe       5.12136000       1.05340000       3.05836000       0.48907600      -0.57242700       0.35981000       0.93725379      -0.94604312       0.49781393
Fe       5.33303000       3.41064000       3.19935000      -1.19050900       0.64225800       0.16946300      -0.72025293       0.45063070       0.00224185
Fe       4.69645000       3.56410000       0.59057000       0.42357200      -2.45414500       1.39631500       1.12071314      -2.05810903       0.98426569
Fe       5.00397000       0.79608000       0.67759000       0.28054300       1.18762000       0.69531900      -0.44362943       0.20867890       0.13031120
Fe       1.02131000       2.39370000       1.67631000      -1.48205000      -1.99677700       1.89497700      -0.76469984      -0.64587764       0.96528424
Fe       4.49205000       4.87623000       4.87240000      -1.22864200       1.13873400      -2.26444700      -1.13821141       1.03912686      -1.70816472
Fe       3.40200000       1.47027000       4.46233000      -0.01871000      -0.18409200       0.67173000      -0.10390322      -0.70941331       0.90402219
Fe       0.59504000       2.14210000       5.17631000       0.66645200      -0.32293300      -3.32851400       1.09583841      -0.09686920      -2.93148173
Fe       1.14446000       5.07983000       4.43636000      -0.37358200       1.06798600      -0.87155500      -0.29109861       0.90491846      -0.63182268
Fe       2.52599000       3.18146000       3.48749000      -0.80261000       1.79870400       1.25168000      -1.39213243       1.95475651       0.79495217
Fe       0.91985000       5.18762000       1.86613000       0.05267700      -0.45193900       0.57888600       0.42050652      -0.13637195       0.85352666
15
Lattice="5.664536 0.0 0.0 0.0 5.664536 0.0 0.0 0.0 5.664536" Properties=species:S:1:pos:R:3:REF_forces:R:3:MACE_forces:R:3 config_type=Fe13Si1B1 REF_energy=-111.24757227 MACE_energy=-60.49692658382422 pbc="T T T"
B        2.53656000       2.62317000       3.66583000      -0.11566700      -0.22978700       0.53017200       0.26472663       0.41793961       0.51699922
Si       0.67483000       4.27329000       2.69225000       0.92910600       0.68145900       0.71622000       0.96227655       0.04707643       0.16381019
Fe       5.14560000       5.37767000       1.05479000      -0.04263700       0.54874800      -0.34508500      -0.43566026       0.30712291       0.22753589
Fe       5.17725000       2.96978000       1.28337000      -0.94481700       0.15150400      -1.65556500      -1.18098203       0.42471424      -1.05650949
Fe       4.74580000       3.13666000       4.02461000      -0.25444200      -0.82574700      -0.11998600      -0.41812224      -0.73069202      -0.76753946
Fe       0.33821000       1.51110000       2.57588000       1.22080500      -1.49602800       0.46012600       1.73849740      -0.81538202       0.94073622
Fe       3.09808000       4.41167000       2.55098000       1.58954700      -0.62340300      -0.59486000       1.59878509      -1.34745033      -0.20692447
Fe       4.73088000       0.16933000       4.32731000       1.21238200      -0.98254900      -0.92008400       0.77606011      -1.19565703      -1.07059999
Fe       3.65998000       1.37781000       0.06620000      -0.53114300       0.39644200       0.40797800      -0.73611682       1.44646694      -0.54576089
Fe       3.63898000       1.27668000       2.55773000      -0.56432500       0.60761700      -1.09420600      -0.38210517       0.39392903      -0.60415881
Fe       3.30156000       4.03302000       5.51710000       0.66273100       0.68309200      -0.51252300       0.83100478       0.59347672      -0.99518804
Fe       2.04972000       2.93776000       1.03536000      -1.23701100      -0.98796000       1.66434700      -1.18039302      -0.99019815       2.14570541
Fe       2.16302000       5.60665000       3.99134000      -0.76618900       1.59088200       1.80303200      -0.69262868       1.42553736       0.99346477
Fe       0.95543000       1.84266000       4.95473000       0.27866900      -0.07002100       0.06014100       0.04377384      -0.38154673       0.03365306
Fe       2.02568000       0.02468000       0.99960000      -1.43701000       0.55575000      -0.39970700      -1.18911616       0.40466304       0.22477638
15
Lattice="5.664536 0.0 0.0 0.0 5.664536 0.0 0.0 0.0 5.664536" Properties=species:S:1:pos:R:3:REF_forces:R:3:MACE_forces:R:3 config_type=Fe13Si1B1 REF_energy=-108.79062395 MACE_energy=-59.48441578443397 pbc="T T T"
B        5.36400000       3.87568000       4.45905000       0.44648400       0.57032200       0.28604800       0.17348185       0.70458911      -0.35033215
Si       3.93387000       4.96403000       3.15711000      -4.30606800      -2.31482200      -2.68264300      -1.45282830      -1.16409980      -1.32381866
Fe       3.00216000       0.92096000       1.44117000      -0.76996800       0.42082500      -0.07835300      -0.18941403       0.17926781       0.12389757
Fe       1.34518000       5.62588000       2.73234000       2.41172500       0.19969700       0.20083700       2.30353165      -0.64933448       0.70492894
Fe       0.44730000       2.09377000       4.98703000       1.17940300       0.68255400       0.66504100       1.25172803       0.77496560      -0.33447726
Fe       0.30923000       3.79563000       2.39919000      -0.97580900      -1.20085800      -1.00234600      -0.91175274       0.20993466       0.05501423
Fe       0.18648000       1.06356000       1.31692000      -0.60348600       1.79501500       0.12312700      -0.29211252       1.36721863       0.31346106
Fe       4.00265000       2.83038000       0.00570000       0.03088500      -0.70677300      -0.45368100       0.32475360      -0.53052758      -0.35490047
Fe       5.37135000       0.30945000       4.05759000       2.43746500       1.21842000       2.05861100      -0.37891283      -0.29368724       1.04927056
Fe       2.32985000       3.12186000       1.52540000       0.40818200       0.55373600       0.67629300      -0.14342515       0.86528408       0.39516753
Fe       2.77320000       0.82160000       4.63749000       0.11143500       0.28254000       0.06072400       0.53319561       0.21220942      -0.49052371
Fe       1.20304000       4.94889000       5.64649000       0.50304000      -0.54997900       0.60819900      -0.55858798      -0.07132734       0.88612821
Fe       4.43330000       2.29054000       2.94368000      -1.10290800       0.42652200       0.72577900      -1.01300110       0.41592114       1.37499375
Fe       4.45738000       5.14386000       0.73674000       0.07827300      -0.88309100      -1.20270400       0.40469911      -1.89343157      -1.20935646
Fe       2.20236000       3.55424000       4.11335000       0.15134500      -0.49410700       0.01507000      -0.05135520      -0.12698244      -0.83945313
15
Lattice="5.664536 0.0 0.0 0.0 5.664536 0.0 0.0 0.0 5.664536" Properties=species:S:1:pos:R:3:REF_forces:R:3:MACE_forces:R:3 config_type=Fe13Si1B1 REF_energy=113.06017811 MACE_energy=-58.852502586774065 pbc="T T T"
B        1.39848000       0.19193000       0.61048000      -4.08297800       9.29302800       8.69098400       0.75064677       0.71997214       1.44374820
Si       2.92490000       2.16030000       2.14060000      -2.63496600       9.58037000      -0.49561900       0.05355319      -0.44078148       0.32095474
Fe       2.86073000       2.70503000       5.26584000       4.32356800      10.20896900      -4.70309300       1.40928643      -1.45388932      -0.91112996
Fe       4.47802000       3.64784000       3.04881000      -8.75739200       8.66530300      12.20431400      -0.32629013       0.11245936       2.57358380
Fe       0.21576000       2.05514000       5.23160000     -18.24380600     -12.70694800      22.88283100       2.08179982       0.23261599      -0.53804861
Fe       0.44166000       2.36030000       2.32519000       9.91181000      13.04098500      -5.34425400       0.94605164      -0.66706634      -0.50568905
Fe       2.03954000       3.82953000       1.07367000      -9.51630500       5.90074000      24.04305300      -1.88682309       1.65237470       0.76355490
Fe       1.39295000       3.86962000       3.86875000       5.08493300      -5.56046400     -11.44166200       0.63146463      -0.30439208      -0.35015871
Fe       4.42805000       1.04262000       3.76613000      10.93879500       4.90624100      -3.25114800      -0.74552886       1.10806277       0.18091737
Fe       4.44753000       1.10914000       0.85325000      15.14670800      12.45203200      -7.47268500      -0.15549583      -0.25622551       0.56726274
Fe       3.06886000       5.29358000       5.21060000      31.03933500     -34.73641400       1.35306500       0.10697626      -0.53068552      -0.31148916
Fe       4.80801000       3.61880000       0.94850000       7.81841300       1.86551900       0.92546600      -1.63505511       0.08328428      -0.65647652
Fe       0.75179000       0.26400000       3.08937000     -19.58866100       1.56533600      18.55626500       0.86742265      -0.40658871      -0.72310067
Fe       3.22665000       5.43114000       2.39493000      -7.30714900       7.24190400      -9.20324300      -1.56650768      -0.05751367      -0.72239730
Fe       0.02250000       5.10600000       5.27962000     -14.13230600     -31.71660300     -46.74427400      -0.53150071       0.20837341      -1.13153176
15
Lattice="5.664536 0.0 0.0 0.0 5.664536 0.0 0.0 0.0 5.664536" Properties=species:S:1:pos:R:3:REF_forces:R:3:MACE_forces:R:3 config_type=Fe13Si1B1 REF_energy=-108.9830283 MACE_energy=-59.214987835438166 pbc="T T T"
B        0.13992000       2.30465000       0.77632000      -2.78401400      -0.82058500       0.46110900      -1.75117364      -1.06493595       0.95727040
Si       2.50353000       2.08237000       3.22653000       0.57446500       0.76610200      -0.17485000       0.30219990       0.39322451      -0.36019748
Fe       1.09387000       3.72736000       2.17845000      -2.33299800      -0.65384800       2.12861500      -1.70539001      -0.86729404       0.47396413
Fe       3.95659000       1.68198000       5.11388000       0.36857700       0.27726400       0.90410800       0.62113507       0.21672861       1.38541300
Fe       3.24055000       0.05102000       1.45794000       1.85872300       1.81044900       1.22583000       0.62424031       1.56467663       1.16857206
Fe       1.11690000       0.40651000       2.78471000       0.23956900      -0.40930100      -0.23173800       0.34346578       0.17672047      -0.37166508
Fe       4.54933000       5.58716000       3.59286000      -0.31901000      -1.37235600       0.15251700       0.28872007      -0.99942826      -0.12383432
Fe       2.02209000       2.17177000       0.81391000       2.28654300       0.57567400       0.95002900       0.85673000       0.07562730       1.06285498
Fe       2.49600000       4.37528000       3.91048000       1.01885200       0.91593900      -0.12431400      -0.04219734      -0.11010255       0.02334123
Fe       1.55562000       0.82810000       4.97050000      -1.41574600      -0.55119900      -1.41023600      -0.51596416       0.34876318      -0.55932710