1
Lattice="18.0 0.0 0.0 0.0 18.0 0.0 0.0 0.0 18.0" Properties=species:S:1:pos:R:3:REF_forces:R:3:MACE_forces:R:3 config_type=IsolatedAtom REF_energy=-3.283081 MACE_energy=-3.283081 pbc="T T T"
Fe       0.00000000       0.00000000       0.00000000       0.00000000       0.00000000       0.00000000      -0.00000000      -0.00000000      -0.00000000
1
Lattice="18.0 0.0 0.0 0.0 18.0 0.0 0.0 0.0 18.0" Properties=species:S:1:pos:R:3:REF_forces:R:3:MACE_forces:R:3 config_type=IsolatedAtom REF_energy=-0.81049333 MACE_energy=-0.81049333 pbc="T T T"
Si       0.00000000       0.00000000       0.00000000       0.00000000       0.00000000       0.00000000      -0.00000000      -0.00000000      -0.00000000
1
Lattice="18.0 0.0 0.0 0.0 18.0 0.0 0.0 0.0 18.0" Properties=species:S:1:pos:R:3:REF_forces:R:3:MACE_forces:R:3 config_type=IsolatedAtom REF_energy=-0.27559471 MACE_energy=-0.27559471 pbc="T T T"
B        0.00000000       0.00000000       0.00000000       0.00000000       0.00000000       0.00000000      -0.00000000      -0.00000000      -0.00000000
10
Lattice="9.0 0.0 0.0 0.0 9.0 0.0 0.0 0.0 9.0" Properties=species:S:1:pos:R:3:REF_forces:R:3:MACE_forces:R:3 config_type=Fe5B1Si4 REF_energy=-44.58554767 MACE_energy=-40.31633978587521 pbc="T T T"
Fe       3.50176000       8.99673000       3.09396000       0.95435000      -0.45803800       0.21474200       1.40005009      -0.25092429       0.52935573
Fe       6.43801000       1.81225000       6.74888000       1.10970900      -0.66476800      -1.17007400       0.94301266      -0.91312504      -1.68085717
Fe       2.41193000       0.16613000       4.88253000       0.30913200      -0.89996000       0.17011800       0.87142784      -1.06303725       0.03920048
Fe       8.52164000       3.22369000       0.34244000      -0.58790500      -0.47306700      -0.37861700      -0.19626123      -0.13149790      -0.24326009
Fe       5.66627000       2.92739000       3.87411000       4.77509600       2.80733600       2.40000400       2.47080906       2.01844161       1.79090149
B        5.18442000       1.13758000       3.40139000      -0.73957100       0.38065100       0.44676100      -1.38503464       0.59087633       0.45849872
Si       7.10242000       1.59600000       3.97694000       2.28029300      -3.67324000       1.18634800       2.02158334      -3.19836353       1.53791915
Si       7.70822000       8.86280000       6.25904000      -0.73207200       1.84563600      -0.48266000      -0.93542789       1.72813207      -0.41784404
Si       3.91832000       3.09724000       3.40175000      -6.85054500      -1.08983400      -1.75602400      -4.34920544      -1.65737577      -1.31413599
Si       3.63788000       6.78794000       4.49538000      -0.51848800       2.22528500      -0.63059800      -0.84095378       2.87687378      -0.69977827
10
Lattice="9.0 0.0 0.0 0.0 9.0 0.0 0.0 0.0 9.0" Properties=species:S:1:pos:R:3:REF_forces:R:3:MACE_forces:R:3 config_type=Fe5B1Si4 REF_energy=-48.18464377 MACE_energy=-45.20091041157415 pbc="T T T"
Fe       7.72908000       2.13801000       3.67226000      -0.72140700       1.38590200       0.18439100      -0.36258217       0.87815190      -0.19831860
Fe       2.56544000       0.37534000       3.55582000       0.62580800       1.02854400      -0.21951900       1.46369617       1.36581375      -0.29726000
Fe       5.84797000       2.87648000       5.04299000      -0.51992300      -1.03088200      -1.60504700      -1.01488949      -1.56759022      -0.57294880
Fe       2.00259000       1.62931000       5.21757000       0.16709900       0.68697000      -1.46342200       0.20895223       0.78267047      -1.58080766
Fe       3.04146000       3.03902000       3.03634000       2.84541400      -0.11631900       1.57660000       2.60392414      -0.50273283       1.65688071
B        4.26036000       4.67435000       3.72342000       0.68065500      -0.16735200      -1.56590600       1.17815908      -0.07134869      -1.97813556
Si       6.34493000       4.18783000       3.43892000      -0.40775000      -0.06673100      -0.63978400      -1.00500804       0.63216197      -1.02609232
Si       0.98363000       2.81182000       2.85911000      -2.44913300      -1.45501500       1.18349900      -1.98917729      -1.63921384       1.48269527
Si       4.97672000       0.35177000       3.88032000      -0.44220000       1.58116100       0.17191700      -1.18474342       2.21838445       0.20140629
Si       4.49316000       6.21641000       2.06194000       0.22143900      -1.84627800       2.37727300       0.10166879      -2.09629695       2.31258067
10
Lattice="11.0 0.0 0.0 0.0 11.0 0.0 0.0 0.0 11.0" Properties=species:S:1:pos:R:3:REF_forces:R:3:MACE_forces:R:3 config_type=Fe5B1Si4 REF_energy=-11.58855075 MACE_energy=-33.36990939556806 pbc="T T T"
Fe       8.76471000       0.00946000       6.88513000      -0.22819700       0.12237200      -0.55543600      -0.00000000      -0.00000000      -0.00000000
Fe       2.63377000       1.33277000       3.45207000      -0.77576300      -0.08136400      -0.00027500      -0.77484513      -0.15271710      -0.48890135
Fe       9.34605000       7.55219000       3.04608000      -1.57311900      -1.03473800      -0.15487700      -1.09360190      -0.54235974       0.00856016
Fe       6.36389000       7.12183000       3.09324000       1.09683100       0.04242100      -0.12816300       1.39906805       0.20191140      -0.02212469
Fe       1.35866000       0.14865000       4.85122000       1.24564900       1.43265900      -2.24078300      -0.36915603       0.51595421      -1.16073438
B        0.74424000       4.87887000       2.93866000      -1.13359500      -0.78566000      -1.94809000      -0.64589732      -0.84532004      -2.39660602
Si       0.41110000       1.07145000       2.73658000       1.34178700       0.50456200      -0.25058800       1.14582799       0.72285732      -0.62916236
Si       0.39736000       3.73439000       0.50956000      -1.07905800      -1.52336200       2.18566600      -0.92253445      -1.14842211       3.18837501
Si       9.29283000       2.08457000       0.89045000       2.55214100       0.43757800       0.40081500       2.76131034       0.87905076       0.56931665
Si       2.63700000       1.37373000       1.21644000      -1.44667700       0.88553200       2.69173100      -1.50017156       0.36904529       0.93127699
10
Lattice="11.0 0.0 0.0 0.0 11.0 0.0 0.0 0.0 11.0" Properties=species:S:1:pos:R:3:REF_forces:R:3:MACE_forces:R:3 config_type=Fe5B1Si4 REF_energy=-38.14997444 MACE_energy=-38.93045695961753 pbc="T T T"
Fe       0.55560000       8.19331000       7.06229000       0.60700700      -1.87987400       0.40247700       0.15367965      -1.01274756       0.37670291
Fe       0.49601000       2.54487000       7.78872000      -1.62914400       1.44061600       0.72816300      -1.72220861       1.47904358       0.69066766
Fe      10.07332000       3.88379000       9.42053000       1.49055100       0.96476400      -0.05327700       1.06646642       0.99750459       0.79321045
Fe       4.45932000       9.07691000       6.11289000       0.24660800      -0.52821700      -0.02378300       0.81643800      -0.95428746       0.03416369
Fe       9.54221000       0.53076000       0.28158000      -0.51209300       1.49842300      -0.39218500      -0.63199709       1.36321090      -0.25664299
B       10.69505000       5.70310000       8.40523000       0.71876200      -1.05034900      -0.26069900       0.95100492      -1.57551936      -0.86019649
Si       9.01619000       3.31434000       7.76349000       0.22101700      -0.39376100      -0.82483600       0.51407174      -0.09079305      -0.59358294
Si       1.50005000       6.10934000       7.36041000      -1.47354600       0.22179200       0.82993100      -1.75657851       0.07030784       0.80234739
Si       8.29851000       3.23195000      10.75936000       1.25238600      -0.70606300      -0.69191000       1.60046045      -1.06666676      -1.02048354
Si       3.13187000      10.62875000       6.05729000      -0.92154800       0.43266900       0.28612000      -0.99133697       0.78994727       0.03381387
10
Lattice="11.0 0.0 0.0 0.0 11.0 0.0 0.0 0.0 11.0" Properties=species:S:1:pos:R:3:REF_forces:R:3:MACE_forces:R:3 config_type=Fe5B1Si4 REF_energy=-39.54850766 MACE_energy=-40.79599973554268 pbc="T T T"
Fe       7.32260000       2.25273000       9.60151000      -0.81068000       1.95759200       1.52424100      -0.67134582       1.67442152       1.52838650
Fe       5.30456000       3.18059000       0.62935000       3.59407800       0.60301100       0.45004200       3.39486717       0.81073493       0.18291270
Fe       5.70290000       5.32015000      10.23784000      -0.55638700      -0.41691100      -0.58631200      -0.91849057      -1.10938388       0.06350652
Fe       7.71673000       4.32859000       0.10409000      -1.51783000      -0.48364700      -0.94636500      -1.71966273      -1.09301119      -0.89861967
Fe       5.73415000       7.17747000       8.80515000      -0.19559000      -2.26799700       1.43769300      -0.38811323      -0.92516163       0.57675406
B        3.53335000       2.44513000       3.14396000       1.80602500       1.42469000       1.46529900       2.02698825       1.27933993       1.09893597
Si       3.05847000       4.99331000       9.56994000       1.58460600       0.22347600       0.29443400       1.86521023      -0.35240200       0.96486246
Si       4.66874000       2.05360000       5.35076000      -1.23296500       0.33348000      -2.53096100      -1.44888048       0.49113294      -2.79717156
Si       3.35109000       3.37679000       0.23198000      -2.51854700       0.79060000      -0.76406600      -2.13770484       1.29504730      -0.18374227
Si       4.02675000       4.41289000       2.41329000      -0.15270900      -2.16429400      -0.34400600      -0.00286797      -2.07071792      -0.53582471
10
Lattice="11.0 0.0 0.0 0.0 11.0 0.0 0.0 0.0 11.0" Properties=species:S:1:pos:R:3:REF_forces:R:3:MACE_forces:R:3 config_type=Fe5B1Si4 REF_energy=-30.22050192 MACE_energy=-39.82851510387606 pbc="T T T"
Fe       7.51027000      10.11418000       2.18625000      -1.69790900       1.72973200      -1.19644900      -0.88913828       2.52687957      -0.68940773
Fe       6.52329000       1.24583000       0.98294000       2.87583100      -1.88416600       0.59355300       2.12552313      -0.52922211       1.61530388
Fe       8.50320000       0.98219000       3.23617000       1.14940800      -1.93965800      -1.01181700       0.41106828      -2.83523782      -2.36552304
Fe       8.81725000       8.60479000       1.96311000       1.70133000      -1.33465300       0.85149000       1.19169095      -1.14113079       0.00841884
Fe       9.16079000       2.26416000       1.64872000      -0.92180800       1.06168500      -1.01542500      -1.16177918       0.85702462      -0.62907259
B        8.94441000       4.16897000      10.47399000      -1.12511400       0.54375800       0.63670800      -0.84417266       0.44746392       0.59858774
Si      10.42398000       4.23416000       1.05026000      -1.52480000      -0.05410100      -1.01659500      -1.86816307      -0.70482626      -1.34649479
Si       7.56198000       2.31002000       4.34386000      -1.29363800       1.80115300       0.97958300      -0.98263334       1.77395183       0.59233371
Si       8.52672000       8.61906000      10.86161000      -0.94443500       0.65405000      -0.31886100      -0.37821942       0.51118594       0.62762575
Si       6.81456000       4.96874000       9.06450000       1.78113500      -0.57779900       1.49781200       2.39582358      -0.90608890       1.58822823
10
Lattice="11.0 0.0 0.0 0.0 11.0 0.0 0.0 0.0 11.0" Properties=species:S:1:pos:R:3:REF_forces:R:3:MACE_forces:R:3 config_type=Fe5B1Si4 REF_energy=-36.59236839 MACE_energy=-41.616264198704044 pbc="T T T"
Fe       3.58274000      10.79851000      10.73667000       0.11897900       0.22630100      -0.04976800      -0.00000000      -0.00000000      -0.00000000
Fe       1.22875000       2.49300000       7.21708000       2.26097500      -1.53625800       1.07649700       2.35865174      -1.31990912       1.44994422
Fe       0.83190000       3.93076000       3.48688000       1.35086000      -1.69250200       0.45489600       1.07020473      -1.41682616       0.25030749
Fe       9.39560000       2.93064000       6.23859000      -2.27414300      -0.91782300      -0.86979000      -3.02464268      -0.56174143      -1.52771508
Fe       1.68648000       4.78764000       5.33563000      -2.42207400      -1.78775100      -0.34755700      -1.53889754      -1.30259839       0.49387280
B        0.09146000       3.23421000       6.27209000       0.33374200       3.18943500      -3.08739300      -0.02657140       2.81667579      -4.28437502
Si      10.14804000       1.29848000       4.70398000      -0.27194000       2.69997500       0.88966000       0.45055720       2.66938167       1.42837886
Si       7.91960000       4.68330000       6.38399000       1.00571800      -0.89791700      -1.90531900       1.19772031      -1.02659645      -1.92687783
Si       7.87407000       3.80560000       3.83659000       1.69436900       0.65761100       2.09344900       1.89679793       0.69592389       2.40340061
Si      10.18862000       4.97429000       4.13294000      -1.79648600       0.05892800       1.74532400      -2.38382031      -0.55430981       1.71306396
10
Lattice="11.0 0.0 0.0 0.0 11.0 0.0 0.0 0.0 11.0" Properties=species:S:1:pos:R:3:REF_forces:R:3:MACE_forces:R:3 config_type=Fe5B1Si4 REF_energy=-37.97135349 MACE_energy=-37.8837219471288 pbc="T T T"
Fe       9.03194000       7.52207000       3.76953000      -0.41692800       1.06213800       1.36215600       0.07236158       1.22935937       0.93121021
Fe      10.13763000      10.16701000       4.97367000      -1.48414600      -0.40832500      -0.11078200      -0.99268972      -1.02153095      -0.29962585
Fe       4.72985000       7.86062000       7.54580000      -0.46341600      -0.84233600       0.25668000      -0.66974952      -1.26616082      -0.35775231
Fe       8.27206000       8.93115000       5.41966000       2.10203900       0.88604100      -1.49179500       0.96816540       0.94240746      -1.17781243
Fe       4.77388000       2.87329000       5.35297000      -0.27504900      -0.53922100      -0.84728100      -0.67359313      -0.46093026      -1.25844113
B        4.61354000       3.86066000       6.74103000      -0.14362800      -0.14915200      -1.57005500      -0.72615666       1.77342633       1.15984431
Si       1.64433000       3.13639000       3.91354000       3.75707800      -0.87803400      -0.36408100       3.65082655      -0.86325948      -1.01411954
Si       3.74801000       5.66030000       6.94882000       0.45210300       0.36957600       0.68487900       1.37247528       0.01208500       0.12506717
Si       8.69515000       0.60160000       4.24738000      -0.18983800      -0.10747800       0.51028900       0.00866110      -1.07180288       0.55940411
Si      10.87890000       3.62141000       4.73344000      -3.33821400       0.60679200       1.56999000      -3.01030088       0.72640623       1.33222545
10
Lattice="11.0 0.0 0.0 0.0 11.0 0.0 0.0 0.0 11.0" Properties=species:S:1:pos:R:3:REF_forces:R:3:MACE_forces:R:3 config_type=Fe5B1Si4 REF_energy=-19.85588119 MACE_energy=-32.009861934796035 pbc="T T T"
Fe       0.38446000       1.64586000       0.19247000      -0.31544900       0.99906300      -1.16531000      -0.31446217       0.10100569      -0.74052955
Fe       4.73202000       7.12132000       7.31276000       0.31929800      -0.23556100       1.39875500       0.17887250       0.32417581       1.49034313
Fe       0.36789000       2.73674000       6.71847000       0.18431700      -0.99436400      -3.07194200      -0.21426118      -0.80719096      -2.47742402
Fe      10.07665000       2.07009000       8.11408000      -1.05625300       0.13475800      -0.04421700      -0.92042784      -1.07420379       0.69108063
Fe       0.10300000      10.83360000       4.98934000      -0.79988200       1.03958000       0.82376600      -1.10917399       1.74903383       0.57977047
B        9.83138000       1.34479000       5.59342000       2.73003300      -1.60069300       1.71860100       2.29470953       0.02109539       2.02373901
Si       8.95511000       2.30296000       4.33786000      -0.13907800       0.36771900       0.11506400       0.26361566       0.01025984      -0.07663653
Si       3.99539000      10.22212000       8.61506000      -0.05248500      -0.48071600       0.18941400       0.23040392      -0.97067837      -0.40869113
Si       2.69021000       5.15166000      10.73011000       1.27722300       0.17680000       0.10453800       1.84877740       0.20577376      -0.42061864
Si       5.75937000       5.49395000      10.03068000      -2.14772600       0.59341400      -0.06866800      -2.25805382       0.44072880      -0.66103337
10
Lattice="9.0 0.0 0.0 0.0 9.0 0.0 0.0 0.0 9.0" Properties=species:S:1:pos:R:3:REF_forces:R:3:MACE_forces:R:3 config_type=Fe5B1Si4 REF_energy=-45.52219027 MACE_energy=-45.79229161914853 pbc="T T T"
Fe       5.95652000       4.23215000       1.06155000      -0.98767900      -0.50029400      -0.25142400      -0.88295423      -0.63395110      -0.65328542
Fe       5.13270000       1.30654000       4.87525000      -1.02972800       1.07694500      -1.04271400      -1.16426780       1.31669709      -1.20752281
Fe       0.86010000       2.84042000       4.86982000       1.78090900      -0.14036100      -0.68290200       1.21801652       0.06579060      -0.34609434
Fe       4.80846000       2.20734000       0.33653000      -0.70934400       1.79820400       0.47599400      -0.80623498       1.47152726       0.28655987
Fe       4.84818000       3.73073000       2.87016000      -1.11599800      -1.47444400      -2.61602900      -1.39316532      -0.94582106      -3.09966211
B        3.56051000       3.01373000       4.13091000      -3.27582500      -2.90917300      -1.74282900      -2.11448655      -2.58789488      -1.44110308
Si       3.41138000       1.28778000       2.26512000       0.95707700       2.37405100       0.97860500       1.27928947       2.34301335       0.57746999
Si       5.16668000       2.63723000       6.68984000       0.07413900      -1.78642600       3.36318600      -0.09155138      -1.75465407       3.84878182
Si       3.08125000       3.86721000       0.97989000       1.93930500      -1.04831500       0.87154200       2.41063719      -1.32466239       1.37491468
Si       4.99984000       3.77363000       4.95280000       2.36714300       2.60981200       0.64657100       1.54471708       2.04995521       0.65994139
10
Lattice="11.0 0.0 0.0 0.0 11.0 0.0 0.0 0.0 11.0" Properties=species:S:1:pos:R:3:REF_forces:R:3:MACE_forces:R:3 config_type=Fe5B1Si4 REF_energy=-40.7418507 MACE_energy=-36.36736774234182 pbc="T T T"
Fe       5.85212000       3.50546000       5.08734000       2.15677100      -0.79414500      -0.20894700       1.20322262      -0.33698720       0.21123664
Fe       4.00684000       5.71103000       1.22208000       0.17321900       0.19260900       1.30384500       0.18354424       0.42470335       1.66865069
Fe       8.00148000       8.34774000      10.98030000      -0.08363800      -0.04550400       0.02901100      -0.00000000      -0.00000000      -0.00000000
Fe       7.35073000       2.40140000       6.64128000       0.77906300       1.12479900      -0.71056100       1.37427414       1.44948569      -1.03782540
Fe      10.15241000       4.26124000       5.16236000      -1.21868700      -1.07976300       1.03424500      -1.89995888      -1.15281415       1.48088170
B        7.50939000       3.71850000       4.30627000       0.81775400       0.01191000       1.18846500       0.75146910      -0.26374471       1.54635341
Si       0.88259000       3.63568000       4.13155000       0.18457900       0.08807600       0.63549900       1.19516013       0.12148127       0.12869097
Si       4.29968000       6.34926000       4.01086000      -0.04470200      -1.65685100      -0.27530200      -0.27554719      -2.48778035      -0.46798806
Si       3.89182000       4.30839000       5.36988000      -1.81091900       1.59107900      -0.75492800      -1.04081192       1.75203950      -1.38087385
Si       9.83466000       2.97427000       7.53103000      -0.95344000       0.56779200      -2.24132700      -1.49135225       0.49361660      -2.14912611
10
Lattice="9.0 0.0 0.0 0.0 9.0 0.0 0.0 0.0 9.0" Properties=species:S:1:pos:R:3:REF_forces:R:3:MACE_forces:R:3 config_type=Fe5B1Si4 REF_energy=-42.65563223 MACE_energy=-44.6916657792123 pbc="T T T"
Fe       5.47398000       6.28103000       3.23251000       0.28355300       0.05833700       0.13117200      -0.07403790      -0.02186968      -0.13418765
Fe       3.48819000       2.94480000       4.89866000      -0.87509200      -0.04370600       2.15230300      -0.91838837       0.38684152       0.63614306
Fe       8.33854000       1.27421000       2.74786000      -0.46364400       1.92715600       1.33564000      -0.58739381       1.62783408       1.62296754
Fe       6.99962000       2.76087000       4.14267000      -0.44746500       1.63766400       1.88762100      -0.34500797       0.80550920       1.55349563
Fe       1.77962000       3.26723000       3.35280000      -0.52218800      -0.67489800       0.43259300       0.32888341      -0.61548410       0.72434440
B        4.62666000       4.86714000       2.55939000       0.26614600      -1.03752000       0.98811100      -0.60487587      -2.19868802       1.09124121
Si       4.18354000       2.39378000       2.99079000       0.43795500       1.50930000      -2.71878500       0.02622762       1.64667557      -1.35209125
Si       8.55432000       3.88894000       3.61944000       3.24804800       2.01892900      -1.57919700       2.66940983       0.59228205      -0.90961634
Si       5.93563000       1.17498000       3.69373000      -1.91994400      -5.30800600      -1.48876300      -0.81632146      -2.48288584      -1.09704790
Si       0.45419000       2.68863000       5.46192000      -0.00736800      -0.08725600      -1.14069400       0.32150453       0.25978521      -2.13524869
10
Lattice="11.0 0.0 0.0 0.0 11.0 0.0 0.0 0.0 11.0" Properties=species:S:1:pos:R:3:REF_forces:R:3:MACE_forces:R:3 config_type=Fe5B1Si4 REF_energy=-34.53347477 MACE_energy=-35.425165164570785 pbc="T T T"
Fe      10.38446000       0.44273000       4.17388000      -0.78237800      -1.86098300       1.10984900      -0.63635889      -2.02469604       1.50109402
Fe       5.58579000       5.13476000       2.28318000      -1.35183300       0.99168200      -0.54319900      -0.97231963      -0.09453102      -0.03271547
Fe      10.26893000       9.29847000       6.65501000       0.41344200       0.04548900      -2.04786900       0.51344470       0.01622264      -2.85071195
Fe       8.86095000       8.11141000       4.18070000       1.29133000       1.24914000       1.04926000       1.67122419       1.13118693       1.23106326
Fe       7.69214000       0.53975000       5.12514000       1.95509500      -0.60911200      -1.00813900       1.47964004      -0.23045199      -0.46756372
B        2.74748000       4.83778000       0.91630000       1.39196400      -0.12393600      -0.20196400       0.85928235       0.02760014       0.30232664
Si       6.81162000       1.90994000       1.53462000      -0.52184800       1.18261600      -0.41056100      -0.65686129       2.29300875      -0.74917027
Si       6.12115000       4.10888000       0.52255000       1.58173000      -1.75162600       1.46051100       1.40554438      -2.61846913       0.49215451
Si       0.91081000       9.09353000       4.86613000      -2.08485700       0.69467200       0.51855400      -3.02855128       1.10867367       0.58366346
Si       4.16380000       4.58033000      10.67633000      -1.89264600       0.18205800       0.07355800      -0.63504458       0.39145605      -0.01014048
10
Lattice="11.0 0.0 0.0 0.0 11.0 0.0 0.0 0.0 11.0" Properties=species:S:1:pos:R:3:REF_forces:R:3:MACE_forces:R:3 config_type=Fe5B1Si4 REF_energy=-31.88716106 MACE_energy=-37.40081054542071 pbc="T T T"
Fe       1.14116000       9.49468000      10.94139000       1.03161900      -0.44995100      -0.39877100       0.83083072      -1.06093609      -0.67698927
Fe       7.21367000       6.98307000       4.70883000      -2.94301400      -1.46688800       0.65014200      -2.17864463      -0.16729376      -0.00821166
Fe       4.99485000       7.56523000       3.28858000       0.74465000      -0.23543700      -0.70888800       0.81911453      -0.67921568      -0.11243445
Fe       5.11075000       7.78078000       8.02245000      -0.73545200      -0.54142400       0.97332500      -1.02468529      -1.24036899       0.66972677
Fe       5.02580000       6.08327000       6.14288000       1.53107200       2.07986600      -0.44355300       1.12766503       1.77260980      -0.58656688
B        6.46739000       9.52531000       1.42776000      -0.83213000      -0.78314200       0.21534400      -1.10415149      -1.00034051       0.17371475
Si       3.36056000       5.78054000       9.88043000      -0.35408900       0.86759200       0.70337500      -0.17801138       2.72712485       0.84836001
Si       3.68875000       6.60974000       1.41965000       0.14004300       0.02695200      -1.00259500       0.70742639       0.62542314      -0.70099276
Si       3.95884000       8.08391000      10.56775000       0.21456400       0.93303900      -0.26874100      -0.83677878      -0.84879431      -0.83492901
Si       1.56076000       7.66233000       9.57449000       1.20273800      -0.43060700       0.28036300       1.83723489      -0.12820844       1.22832249
10
Lattice="11.0 0.0 0.0 0.0 11.0 0.0 0.0 0.0 11.0" Properties=species:S:1:pos:R:3:REF_forces:R:3:MACE_forces:R:3 config_type=Fe5B1Si4 REF_energy=-2.43842541 MACE_energy=-41.49619911780093 pbc="T T T"
Fe       8.11536000       3.96737000       6.09845000       2.52379000       3.39438000      -0.10855200       2.78055154       3.41939148      -0.55395700
Fe       4.00538000       4.00868000       8.30741000       1.03860200       0.49749300      -0.86210200       0.52457987      -0.17525911      -0.50424259
Fe       6.21734000       5.49238000       4.54674000      -1.90078500      -0.53233000       2.45773000      -2.45033468      -1.88424746       1.54794221
Fe       6.37295000       3.21617000       6.01003000      -4.31429000      -0.62928100      -0.35144300      -4.50264870      -0.17418959      -0.96048754
Fe       4.28107000       3.14598000       4.09228000       1.68301600       0.43320300       1.57416800       1.58918093       0.82935980       0.96760745
B        8.65122000       7.09833000       7.78974000      -0.81588400      -0.96711600      -2.45875700      -0.07042610      -0.38988749      -0.81153072
Si       8.15838000       5.95236000       4.46257000       2.65955200       1.43037300       0.95638300       2.36920125       0.53072384       1.14413677
Si       7.04021000       6.67768000       6.73922000       0.09201500      -1.71899800      -1.45860000       0.42372395      -1.15200749      -1.10779972
Si       9.92269000       6.79012000       6.33039000      -1.33422700      -1.06385500      -1.26044000      -1.09000883      -0.51626452      -0.16496788
Si       6.58826000       7.17809000       3.12641000       0.36821200      -0.84387000       1.51161300       0.42618076      -0.48761946       0.44329901
10
Lattice="6.0 0.0 0.0 0.0 6.0 0.0 0.0 0.0 6.0" Properties=species:S:1:pos:R:3:REF_forces:R:3:MACE_forces:R:3 config_type=Fe5B1Si4 REF_energy=-53.79328822 MACE_energy=-50.167271564738044 pbc="T T T"
Fe       0.50996000       2.31585000       5.10298000      -1.26599000      -0.50951400      -1.36914100      -1.43180147      -0.25540515      -0.99776288
Fe       4.41281000       4.39623000       3.51801000       2.05066400       2.95138500      -2.14682400       1.71736381       2.58016092      -2.19950001
Fe       1.31233000       5.37312000       2.96679000      -9.66985400       0.21848200       6.64889800      -4.43977149       0.33510406       3.65414671
Fe       5.30196000       5.42046000       5.41384000       1.20364700       0.82237100      -1.12375000       0.72161445       0.50652648      -1.31419010
Fe       2.97556000       4.92730000       5.11455000      -0.79718400       0.13310700       0.96147400      -0.29969985      -0.25531989       0.26872167
B        5.46078000       0.52907000       3.64926000      -0.06089300       0.25590500       0.66478200      -0.59386647       0.07785665       0.31386164
Si       2.81628000       5.37752000       2.00180000       6.85751800      -0.72904200      -5.53711500       3.19584781      -0.09824534      -1.92197544
Si       3.67557000       2.72706000       4.43876000      -0.82806600      -3.20205400       1.23328500      -0.48217049      -2.69146166       0.81406301
Si       4.50462000       4.23004000       1.13387000       0.98654700      -1.71437000      -0.38631400       0.66667939      -0.81602425      -0.16843224
Si       3.47649000       1.50306000       2.12993000       1.52361000       1.77373100       1.05470500       0.94580432       0.61680819       1.55106765
10
Lattice="12.0 0.0 0.0 0.0 12.0 0.0 0.0 0.0 12.0" Properties=species:S:1:pos:R:3:REF_forces:R:3:MACE_forces:R:3 config_type=Fe5B1Si4 REF_energy=-45.66921287 MACE_energy=-41.81367152064066 pbc="T T T"
Fe       4.03767000       2.41086000       6.51410000       1.86803300       0.00585300       0.51063200       1.39744138      -0.16638815       0.27489864
Fe       4.79727000      11.75927000       9.09533000       0.54049700       0.45513700      -1.32376800       0.00648161       0.03446889      -0.05414086
Fe       5.80034000       0.20229000       7.24671000      -0.98588000       0.20802500       0.94137200      -0.76142155       0.90136593      -0.27735020