1
Lattice="18.0 0.0 0.0 0.0 18.0 0.0 0.0 0.0 18.0" Properties=species:S:1:pos:R:3:REF_forces:R:3:MACE_forces:R:3 config_type=IsolatedAtom REF_energy=-3.283081 MACE_energy=-3.283081 pbc="T T T"
Fe       0.00000000       0.00000000       0.00000000       0.00000000       0.00000000       0.00000000      -0.00000000      -0.00000000      -0.00000000
1
Lattice="18.0 0.0 0.0 0.0 18.0 0.0 0.0 0.0 18.0" Properties=species:S:1:pos:R:3:REF_forces:R:3:MACE_forces:R:3 config_type=IsolatedAtom REF_energy=-0.81049333 MACE_energy=-0.81049333 pbc="T T T"
Si       0.00000000       0.00000000       0.00000000       0.00000000       0.00000000       0.00000000      -0.00000000      -0.00000000      -0.00000000
1
Lattice="18.0 0.0 0.0 0.0 18.0 0.0 0.0 0.0 18.0" Properties=species:S:1:pos:R:3:REF_forces:R:3:MACE_forces:R:3 config_type=IsolatedAtom REF_energy=-0.27559471 MACE_energy=-0.27559471 pbc="T T T"
B        0.00000000       0.00000000       0.00000000       0.00000000       0.00000000       0.00000000      -0.00000000      -0.00000000      -0.00000000
10
Lattice="9.0 0.0 0.0 0.0 9.0 0.0 0.0 0.0 9.0" Properties=species:S:1:pos:R:3:REF_forces:R:3:MACE_forces:R:3 config_type=Fe5B1Si4 REF_energy=-44.58554767 MACE_energy=-19.947633849012686 pbc="T T T"
Fe       3.50176000       8.99673000       3.09396000       0.95435000      -0.45803800       0.21474200       0.17416723      -0.25968982      -0.32995403
Fe       6.43801000       1.81225000       6.74888000       1.10970900      -0.66476800      -1.17007400       0.07189137      -0.10326689      -0.04929185
Fe       2.41193000       0.16613000       4.88253000       0.30913200      -0.89996000       0.17011800      -0.18683135      -0.06700142       0.38841109
Fe       8.52164000       3.22369000       0.34244000      -0.58790500      -0.47306700      -0.37861700      -0.00041390      -0.00028037      -0.00051516
Fe       5.66627000       2.92739000       3.87411000       4.77509600       2.80733600       2.40000400       0.08368164       0.48991901       0.13071301
B        5.18442000       1.13758000       3.40139000      -0.73957100       0.38065100       0.44676100      -0.00474196      -0.09230591      -0.03064257
Si       7.10242000       1.59600000       3.97694000       2.28029300      -3.67324000       1.18634800       0.45713179      -0.38520857       0.07896840
Si       7.70822000       8.86280000       6.25904000      -0.73207200       1.84563600      -0.48266000      -0.06785121       0.10786484       0.01449634
Si       3.91832000       3.09724000       3.40175000      -6.85054500      -1.08983400      -1.75602400      -0.46075111       0.04688856      -0.12312423
Si       3.63788000       6.78794000       4.49538000      -0.51848800       2.22528500      -0.63059800      -0.06628249       0.26308056      -0.07906101
10
Lattice="9.0 0.0 0.0 0.0 9.0 0.0 0.0 0.0 9.0" Properties=species:S:1:pos:R:3:REF_forces:R:3:MACE_forces:R:3 config_type=Fe5B1Si4 REF_energy=-48.18464377 MACE_energy=-20.329874676673153 pbc="T T T"
Fe       7.72908000       2.13801000       3.67226000      -0.72140700       1.38590200       0.18439100       0.01364801       0.24245931      -0.04321318
Fe       2.56544000       0.37534000       3.55582000       0.62580800       1.02854400      -0.21951900       0.29860334      -0.12660882      -0.29100774
Fe       5.84797000       2.87648000       5.04299000      -0.51992300      -1.03088200      -1.60504700      -0.03020660      -0.23049788       0.20876255
Fe       2.00259000       1.62931000       5.21757000       0.16709900       0.68697000      -1.46342200      -0.07588814       0.28519401       0.18602641
Fe       3.04146000       3.03902000       3.03634000       2.84541400      -0.11631900       1.57660000       0.38175951      -0.12934873       0.12345395
B        4.26036000       4.67435000       3.72342000       0.68065500      -0.16735200      -1.56590600       0.00320354       0.01979198       0.01749629
Si       6.34493000       4.18783000       3.43892000      -0.40775000      -0.06673100      -0.63978400       0.21013482       0.03301564      -0.23863489
Si       0.98363000       2.81182000       2.85911000      -2.44913300      -1.45501500       1.18349900      -0.61578287      -0.11156199       0.06071530
Si       4.97672000       0.35177000       3.88032000      -0.44220000       1.58116100       0.17191700      -0.18008711       0.01239165      -0.02216810
Si       4.49316000       6.21641000       2.06194000       0.22143900      -1.84627800       2.37727300      -0.00538450       0.00516483      -0.00143057
10
Lattice="11.0 0.0 0.0 0.0 11.0 0.0 0.0 0.0 11.0" Properties=species:S:1:pos:R:3:REF_forces:R:3:MACE_forces:R:3 config_type=Fe5B1Si4 REF_energy=-11.58855075 MACE_energy=-20.200412582092863 pbc="T T T"
Fe       8.76471000       0.00946000       6.88513000      -0.22819700       0.12237200      -0.55543600      -0.00000000      -0.00000000      -0.00000000
Fe       2.63377000       1.33277000       3.45207000      -0.77576300      -0.08136400      -0.00027500       0.05922638       0.11637385      -0.05619943
Fe       9.34605000       7.55219000       3.04608000      -1.57311900      -1.03473800      -0.15487700      -0.01044100      -0.00418023       0.00010356
Fe       6.36389000       7.12183000       3.09324000       1.09683100       0.04242100      -0.12816300       0.01256443       0.00181319      -0.00019869
Fe       1.35866000       0.14865000       4.85122000       1.24564900       1.43265900      -2.24078300      -0.21491487      -0.05245864      -0.02160998
B        0.74424000       4.87887000       2.93866000      -1.13359500      -0.78566000      -1.94809000      -0.00610518      -0.01093353      -0.02767804
Si       0.41110000       1.07145000       2.73658000       1.34178700       0.50456200      -0.25058800       0.24078793      -0.05051508       0.13535864
Si       0.39736000       3.73439000       0.50956000      -1.07905800      -1.52336200       2.18566600      -0.08317891      -0.05793051       0.04607674
Si       9.29283000       2.08457000       0.89045000       2.55214100       0.43757800       0.40081500       0.08782393       0.06764290      -0.01489292
Si       2.63700000       1.37373000       1.21644000      -1.44667700       0.88553200       2.69173100      -0.08576270      -0.00981196      -0.06095988
10
Lattice="11.0 0.0 0.0 0.0 11.0 0.0 0.0 0.0 11.0" Properties=species:S:1:pos:R:3:REF_forces:R:3:MACE_forces:R:3 config_type=Fe5B1Si4 REF_energy=-38.14997444 MACE_energy=-20.22295298299736 pbc="T T T"
Fe       0.55560000       8.19331000       7.06229000       0.60700700      -1.87987400       0.40247700       0.01535256       0.00603698      -0.00926790
Fe       0.49601000       2.54487000       7.78872000      -1.62914400       1.44061600       0.72816300      -0.26343646       0.13844280       0.08997879
Fe      10.07332000       3.88379000       9.42053000       1.49055100       0.96476400      -0.05327700       0.30552888       0.04402697       0.33351097
Fe       4.45932000       9.07691000       6.11289000       0.24660800      -0.52821700      -0.02378300       0.32327654      -0.37792268       0.01354038
Fe       9.54221000       0.53076000       0.28158000      -0.51209300       1.49842300      -0.39218500       0.00613420      -0.01330688       0.00256793
B       10.69505000       5.70310000       8.40523000       0.71876200      -1.05034900      -0.26069900      -0.03211410      -0.03208388       0.01509318
Si       9.01619000       3.31434000       7.76349000       0.22101700      -0.39376100      -0.82483600      -0.06324322      -0.18409132      -0.40293759
Si       1.50005000       6.10934000       7.36041000      -1.47354600       0.22179200       0.82993100       0.01565873       0.01974832      -0.01541642
Si       8.29851000       3.23195000      10.75936000       1.25238600      -0.70606300      -0.69191000       0.01737145       0.02241062      -0.01401738
Si       3.13187000      10.62875000       6.05729000      -0.92154800       0.43266900       0.28612000      -0.32452858       0.37673908      -0.01305195
10
Lattice="11.0 0.0 0.0 0.0 11.0 0.0 0.0 0.0 11.0" Properties=species:S:1:pos:R:3:REF_forces:R:3:MACE_forces:R:3 config_type=Fe5B1Si4 REF_energy=-39.54850766 MACE_energy=-20.317300942710595 pbc="T T T"
Fe       7.32260000       2.25273000       9.60151000      -0.81068000       1.95759200       1.52424100       0.01304144       0.12529511       0.09677249
Fe       5.30456000       3.18059000       0.62935000       3.59407800       0.60301100       0.45004200       0.56473031       0.22359269       0.13333147
Fe       5.70290000       5.32015000      10.23784000      -0.55638700      -0.41691100      -0.58631200      -0.08049253      -0.18132377       0.09602296
Fe       7.71673000       4.32859000       0.10409000      -1.51783000      -0.48364700      -0.94636500      -0.16425328      -0.15801662      -0.07613332
Fe       5.73415000       7.17747000       8.80515000      -0.19559000      -2.26799700       1.43769300      -0.00376924       0.03094720      -0.02536502
B        3.53335000       2.44513000       3.14396000       1.80602500       1.42469000       1.46529900       0.00344806      -0.02120749       0.02630463
Si       3.05847000       4.99331000       9.56994000       1.58460600       0.22347600       0.29443400       0.10657592      -0.02925253       0.06744691
Si       4.66874000       2.05360000       5.35076000      -1.23296500       0.33348000      -2.53096100      -0.01127857       0.00422191      -0.02217911
Si       3.35109000       3.37679000       0.23198000      -2.51854700       0.79060000      -0.76406600      -0.49517397       0.15533579      -0.00223471
Si       4.02675000       4.41289000       2.41329000      -0.15270900      -2.16429400      -0.34400600       0.06717185      -0.14959228      -0.29396630
10
Lattice="11.0 0.0 0.0 0.0 11.0 0.0 0.0 0.0 11.0" Properties=species:S:1:pos:R:3:REF_forces:R:3:MACE_forces:R:3 config_type=Fe5B1Si4 REF_energy=-30.22050192 MACE_energy=-20.07840130613088 pbc="T T T"
Fe       7.51027000      10.11418000       2.18625000      -1.69790900       1.72973200      -1.19644900      -0.44293714       0.54213348      -0.00895610
Fe       6.52329000       1.24583000       0.98294000       2.87583100      -1.88416600       0.59355300       0.10559593      -0.10434360       0.08964730
Fe       8.50320000       0.98219000       3.23617000       1.14940800      -1.93965800      -1.01181700       0.14456575      -0.60590057      -0.01697669
Fe       8.81725000       8.60479000       1.96311000       1.70133000      -1.33465300       0.85149000       0.42700636      -0.43803592       0.29247423
Fe       9.16079000       2.26416000       1.64872000      -0.92180800       1.06168500      -1.01542500       0.17505699       0.34146688      -0.34381116
B        8.94441000       4.16897000      10.47399000      -1.12511400       0.54375800       0.63670800      -0.03940948       0.02408939      -0.04760875
Si      10.42398000       4.23416000       1.05026000      -1.52480000      -0.05410100      -1.01659500      -0.07071886      -0.12977407       0.05328939
Si       7.56198000       2.31002000       4.34386000      -1.29363800       1.80115300       0.97958300      -0.27608813       0.37937345       0.32555004
Si       8.52672000       8.61906000      10.86161000      -0.94443500       0.65405000      -0.31886100      -0.04788568       0.00031087      -0.36002590
Si       6.81456000       4.96874000       9.06450000       1.78113500      -0.57779900       1.49781200       0.02481426      -0.00931991       0.01641762
10
Lattice="11.0 0.0 0.0 0.0 11.0 0.0 0.0 0.0 11.0" Properties=species:S:1:pos:R:3:REF_forces:R:3:MACE_forces:R:3 config_type=Fe5B1Si4 REF_energy=-36.59236839 MACE_energy=-20.150980676398042 pbc="T T T"
Fe       3.58274000      10.79851000      10.73667000       0.11897900       0.22630100      -0.04976800      -0.00000000      -0.00000000      -0.00000000
Fe       1.22875000       2.49300000       7.21708000       2.26097500      -1.53625800       1.07649700       0.07412684      -0.04514778       0.05313492
Fe       0.83190000       3.93076000       3.48688000       1.35086000      -1.69250200       0.45489600       0.28075738      -0.35462073      -0.41037032
Fe       9.39560000       2.93064000       6.23859000      -2.27414300      -0.91782300      -0.86979000      -0.09331163      -0.11300708      -0.04786343
Fe       1.68648000       4.78764000       5.33563000      -2.42207400      -1.78775100      -0.34755700      -0.02936826       0.03413865       0.25692537
B        0.09146000       3.23421000       6.27209000       0.33374200       3.18943500      -3.08739300       0.10108735       0.13139321      -0.12128606
Si      10.14804000       1.29848000       4.70398000      -0.27194000       2.69997500       0.88966000      -0.01684418       0.10704514       0.08804800
Si       7.91960000       4.68330000       6.38399000       1.00571800      -0.89791700      -1.90531900      -0.00961542      -0.03500924      -0.10309671
Si       7.87407000       3.80560000       3.83659000       1.69436900       0.65761100       2.09344900       0.13283145       0.10408833       0.11820046
Si      10.18862000       4.97429000       4.13294000      -1.79648600       0.05892800       1.74532400      -0.43966353       0.17111950       0.16630778
10
Lattice="11.0 0.0 0.0 0.0 11.0 0.0 0.0 0.0 11.0" Properties=species:S:1:pos:R:3:REF_forces:R:3:MACE_forces:R:3 config_type=Fe5B1Si4 REF_energy=-37.97135349 MACE_energy=-20.14347620065394 pbc="T T T"
Fe       9.03194000       7.52207000       3.76953000      -0.41692800       1.06213800       1.36215600       0.03913534      -0.07306489      -0.08536381
Fe      10.13763000      10.16701000       4.97367000      -1.48414600      -0.40832500      -0.11078200       0.31002229      -0.10515750       0.06529247
Fe       4.72985000       7.86062000       7.54580000      -0.46341600      -0.84233600       0.25668000      -0.07954906      -0.17826554      -0.04836606
Fe       8.27206000       8.93115000       5.41966000       2.10203900       0.88604100      -1.49179500      -0.16227857      -0.01239296       0.11629694
Fe       4.77388000       2.87329000       5.35297000      -0.27504900      -0.53922100      -0.84728100       0.00391290      -0.07149494      -0.10876676
B        4.61354000       3.86066000       6.74103000      -0.14362800      -0.14915200      -1.57005500       0.01191707       0.02643306       0.10282007
Si       1.64433000       3.13639000       3.91354000       3.75707800      -0.87803400      -0.36408100       0.33682430      -0.09125875      -0.15023230
Si       3.74801000       5.66030000       6.94882000       0.45210300       0.36957600       0.68487900       0.05701424       0.22389166       0.05123018
Si       8.69515000       0.60160000       4.24738000      -0.18983800      -0.10747800       0.51028900      -0.18608979       0.19170692      -0.09604992
Si      10.87890000       3.62141000       4.73344000      -3.33821400       0.60679200       1.56999000      -0.33090873       0.08960296       0.15313919
10
Lattice="11.0 0.0 0.0 0.0 11.0 0.0 0.0 0.0 11.0" Properties=species:S:1:pos:R:3:REF_forces:R:3:MACE_forces:R:3 config_type=Fe5B1Si4 REF_energy=-19.85588119 MACE_energy=-19.93136688282374 pbc="T T T"
Fe       0.38446000       1.64586000       0.19247000      -0.31544900       0.99906300      -1.16531000       0.00046657      -0.00015174       0.00109795
Fe       4.73202000       7.12132000       7.31276000       0.31929800      -0.23556100       1.39875500      -0.00015477       0.00439906       0.00657425
Fe       0.36789000       2.73674000       6.71847000       0.18431700      -0.99436400      -3.07194200       0.30456213       0.13513108      -0.45290136
Fe      10.07665000       2.07009000       8.11408000      -1.05625300       0.13475800      -0.04421700      -0.37759245      -0.20639536       0.35142240
Fe       0.10300000      10.83360000       4.98934000      -0.79988200       1.03958000       0.82376600       0.05616421      -0.06757831      -0.02953933
B        9.83138000       1.34479000       5.59342000       2.73003300      -1.60069300       1.71860100       0.06285264       0.08191727       0.20230269
Si       8.95511000       2.30296000       4.33786000      -0.13907800       0.36771900       0.11506400      -0.04645311       0.05707706      -0.07238235
Si       3.99539000      10.22212000       8.61506000      -0.05248500      -0.48071600       0.18941400       0.00158237      -0.00666076      -0.00279726
Si       2.69021000       5.15166000      10.73011000       1.27722300       0.17680000       0.10453800      -0.00802940      -0.00089542       0.00182970
Si       5.75937000       5.49395000      10.03068000      -2.14772600       0.59341400      -0.06866800       0.00660179       0.00315712      -0.00560670
10
Lattice="9.0 0.0 0.0 0.0 9.0 0.0 0.0 0.0 9.0" Properties=species:S:1:pos:R:3:REF_forces:R:3:MACE_forces:R:3 config_type=Fe5B1Si4 REF_energy=-45.52219027 MACE_energy=-20.364996580952933 pbc="T T T"
Fe       5.95652000       4.23215000       1.06155000      -0.98767900      -0.50029400      -0.25142400       0.13201472       0.01922397      -0.30632187
Fe       5.13270000       1.30654000       4.87525000      -1.02972800       1.07694500      -1.04271400      -0.07571593       0.21761622      -0.08749446
Fe       0.86010000       2.84042000       4.86982000       1.78090900      -0.14036100      -0.68290200      -0.00984205      -0.00063196       0.00268935
Fe       4.80846000       2.20734000       0.33653000      -0.70934400       1.79820400       0.47599400      -0.20171947       0.15250034       0.12956685
Fe       4.84818000       3.73073000       2.87016000      -1.11599800      -1.47444400      -2.61602900      -0.24447589      -0.04313462      -0.40465309
B        3.56051000       3.01373000       4.13091000      -3.27582500      -2.90917300      -1.74282900      -0.10219046      -0.19894043       0.06681077
Si       3.41138000       1.28778000       2.26512000       0.95707700       2.37405100       0.97860500       0.10973324       0.12162253      -0.15234071
Si       5.16668000       2.63723000       6.68984000       0.07413900      -1.78642600       3.36318600       0.00350817      -0.12071360       0.42535821
Si       3.08125000       3.86721000       0.97989000       1.93930500      -1.04831500       0.87154200       0.28302767      -0.16159882       0.09651906
Si       4.99984000       3.77363000       4.95280000       2.36714300       2.60981200       0.64657100       0.10566001       0.01405637       0.22986591
10
Lattice="11.0 0.0 0.0 0.0 11.0 0.0 0.0 0.0 11.0" Properties=species:S:1:pos:R:3:REF_forces:R:3:MACE_forces:R:3 config_type=Fe5B1Si4 REF_energy=-40.7418507 MACE_energy=-20.136264703134728 pbc="T T T"
Fe       5.85212000       3.50546000       5.08734000       2.15677100      -0.79414500      -0.20894700       0.19910400      -0.16304743       0.05659574
Fe       4.00684000       5.71103000       1.22208000       0.17321900       0.19260900       1.30384500       0.00190043       0.00414096       0.01809874
Fe       8.00148000       8.34774000      10.98030000      -0.08363800      -0.04550400       0.02901100      -0.00000000      -0.00000000      -0.00000000
Fe       7.35073000       2.40140000       6.64128000       0.77906300       1.12479900      -0.71056100       0.08410834       0.06883296      -0.02128443
Fe      10.15241000       4.26124000       5.16236000      -1.21868700      -1.07976300       1.03424500      -0.31649066       0.06134512       0.29685491
B        7.50939000       3.71850000       4.30627000       0.81775400       0.01191000       1.18846500       0.12129843       0.00022240      -0.04386289
Si       0.88259000       3.63568000       4.13155000       0.18457900       0.08807600       0.63549900       0.31628691      -0.11473837      -0.18910832
Si       4.29968000       6.34926000       4.01086000      -0.04470200      -1.65685100      -0.27530200      -0.02442149      -0.13922273       0.07013054
Si       3.89182000       4.30839000       5.36988000      -1.81091900       1.59107900      -0.75492800      -0.27730544       0.25373478      -0.04195652
Si       9.83466000       2.97427000       7.53103000      -0.95344000       0.56779200      -2.24132700      -0.10448051       0.02873232      -0.14546777
10
Lattice="9.0 0.0 0.0 0.0 9.0 0.0 0.0 0.0 9.0" Properties=species:S:1:pos:R:3:REF_forces:R:3:MACE_forces:R:3 config_type=Fe5B1Si4 REF_energy=-42.65563223 MACE_energy=-20.339693110243154 pbc="T T T"
Fe       5.47398000       6.28103000       3.23251000       0.28355300       0.05833700       0.13117200       0.06884657       0.11489721       0.05467291
Fe       3.48819000       2.94480000       4.89866000      -0.87509200      -0.04370600       2.15230300      -0.06007368       0.09575575       0.40229652
Fe       8.33854000       1.27421000       2.74786000      -0.46364400       1.92715600       1.33564000      -0.21897997       0.11172957       0.13783565
Fe       6.99962000       2.76087000       4.14267000      -0.44746500       1.63766400       1.88762100      -0.01288903       0.10491945       0.26813459
Fe       1.77962000       3.26723000       3.35280000      -0.52218800      -0.67489800       0.43259300      -0.01428564      -0.08295804       0.09480621
B        4.62666000       4.86714000       2.55939000       0.26614600      -1.03752000       0.98811100      -0.07809926      -0.15063891      -0.04431696
Si       4.18354000       2.39378000       2.99079000       0.43795500       1.50930000      -2.71878500      -0.10067301       0.01649540      -0.35551524
Si       8.55432000       3.88894000       3.61944000       3.24804800       2.01892900      -1.57919700       0.50409013       0.17129809      -0.10109154
Si       5.93563000       1.17498000       3.69373000      -1.91994400      -5.30800600      -1.48876300      -0.08388399      -0.47699718      -0.18619781
Si       0.45419000       2.68863000       5.46192000      -0.00736800      -0.08725600      -1.14069400      -0.00405213       0.09549865      -0.27062433
10
Lattice="11.0 0.0 0.0 0.0 11.0 0.0 0.0 0.0 11.0" Properties=species:S:1:pos:R:3:REF_forces:R:3:MACE_forces:R:3 config_type=Fe5B1Si4 REF_energy=-34.53347477 MACE_energy=-20.13823971602745 pbc="T T T"
Fe      10.38446000       0.44273000       4.17388000      -0.78237800      -1.86098300       1.10984900      -0.05334212      -0.00801391       0.02257066
Fe       5.58579000       5.13476000       2.28318000      -1.35183300       0.99168200      -0.54319900      -0.08568876       0.18685569       0.33802437
Fe      10.26893000       9.29847000       6.65501000       0.41344200       0.04548900      -2.04786900       0.11891078      -0.01764634      -0.12994654
Fe       8.86095000       8.11141000       4.18070000       1.29133000       1.24914000       1.04926000       0.00195592       0.00175090       0.00176471
Fe       7.69214000       0.53975000       5.12514000       1.95509500      -0.60911200      -1.00813900       0.06110395      -0.00254653      -0.02148009
B        2.74748000       4.83778000       0.91630000       1.39196400      -0.12393600      -0.20196400      -0.07102888       0.01180165       0.05565747
Si       6.81162000       1.90994000       1.53462000      -0.52184800       1.18261600      -0.41056100      -0.04644490       0.14674731      -0.06378095
Si       6.12115000       4.10888000       0.52255000       1.58173000      -1.75162600       1.46051100       0.27062953      -0.36115695      -0.20522606
Si       0.91081000       9.09353000       4.86613000      -2.08485700       0.69467200       0.51855400      -0.12862922       0.02645695       0.12708843
Si       4.16380000       4.58033000      10.67633000      -1.89264600       0.18205800       0.07355800      -0.06746628       0.01575123      -0.12467200
10
Lattice="11.0 0.0 0.0 0.0 11.0 0.0 0.0 0.0 11.0" Properties=species:S:1:pos:R:3:REF_forces:R:3:MACE_forces:R:3 config_type=Fe5B1Si4 REF_energy=-31.88716106 MACE_energy=-20.312020245899618 pbc="T T T"
Fe       1.14116000       9.49468000      10.94139000       1.03161900      -0.44995100      -0.39877100       0.00053797      -0.03222136      -0.02590591
Fe       7.21367000       6.98307000       4.70883000      -2.94301400      -1.46688800       0.65014200      -0.19487354      -0.00564796      -0.01554949
Fe       4.99485000       7.56523000       3.28858000       0.74465000      -0.23543700      -0.70888800      -0.00065343      -0.11268153      -0.07323476
Fe       5.11075000       7.78078000       8.02245000      -0.73545200      -0.54142400       0.97332500      -0.02518633      -0.08513643      -0.05529459
Fe       5.02580000       6.08327000       6.14288000       1.53107200       2.07986600      -0.44355300       0.08892742       0.12489069       0.05016605
B        6.46739000       9.52531000       1.42776000      -0.83213000      -0.78314200       0.21534400       0.00832255       0.01000813      -0.00768015
Si       3.36056000       5.78054000       9.88043000      -0.35408900       0.86759200       0.70337500      -0.04956338       0.28214895       0.13610164
Si       3.68875000       6.60974000       1.41965000       0.14004300       0.02695200      -1.00259500       0.10040825       0.10385268      -0.04024086
Si       3.95884000       8.08391000      10.56775000       0.21456400       0.93303900      -0.26874100      -0.15045416      -0.23910707      -0.06762129
Si       1.56076000       7.66233000       9.57449000       1.20273800      -0.43060700       0.28036300       0.22253464      -0.04610609       0.09925937
10
Lattice="11.0 0.0 0.0 0.0 11.0 0.0 0.0 0.0 11.0" Properties=species:S:1:pos:R:3:REF_forces:R:3:MACE_forces:R:3 config_type=Fe5B1Si4 REF_energy=-2.43842541 MACE_energy=-20.061152047216726 pbc="T T T"
Fe       8.11536000       3.96737000       6.09845000       2.52379000       3.39438000      -0.10855200       0.49409631       0.40159332      -0.12919572
Fe       4.00538000       4.00868000       8.30741000       1.03860200       0.49749300      -0.86210200      -0.00050585       0.00016954       0.00049153
Fe       6.21734000       5.49238000       4.54674000      -1.90078500      -0.53233000       2.45773000      -0.45546237      -0.27568009       0.34526179
Fe       6.37295000       3.21617000       6.01003000      -4.31429000      -0.62928100      -0.35144300      -0.57543866      -0.10964656      -0.14667559
Fe       4.28107000       3.14598000       4.09228000       1.68301600       0.43320300       1.57416800       0.05552497       0.00402587       0.04965238
B        8.65122000       7.09833000       7.78974000      -0.81588400      -0.96711600      -2.45875700       0.00917681       0.02275140       0.08635269
Si       8.15838000       5.95236000       4.46257000       2.65955200       1.43037300       0.95638300       0.46379880       0.10002772       0.23784257
Si       7.04021000       6.67768000       6.73922000       0.09201500      -1.71899800      -1.45860000      -0.03841884      -0.12489064      -0.30725683
Si       9.92269000       6.79012000       6.33039000      -1.33422700      -1.06385500      -1.26044000      -0.04796148      -0.05080713      -0.12591269
Si       6.58826000       7.17809000       3.12641000       0.36821200      -0.84387000       1.51161300       0.09519030       0.03245657      -0.01056014
10
Lattice="6.0 0.0 0.0 0.0 6.0 0.0 0.0 0.0 6.0" Properties=species:S:1:pos:R:3:REF_forces:R:3:MACE_forces:R:3 config_type=Fe5B1Si4 REF_energy=-53.79328822 MACE_energy=-20.52906642009579 pbc="T T T"
Fe       0.50996000       2.31585000       5.10298000      -1.26599000      -0.50951400      -1.36914100      -0.03715980      -0.06298990      -0.04889799
Fe       4.41281000       4.39623000       3.51801000       2.05066400       2.95138500      -2.14682400       0.28228873       0.45467627      -0.70668071
Fe       1.31233000       5.37312000       2.96679000      -9.66985400       0.21848200       6.64889800      -0.35591234       0.00502438       0.33512510
Fe       5.30196000       5.42046000       5.41384000       1.20364700       0.82237100      -1.12375000       0.03050487       0.04299854       0.03717065
Fe       2.97556000       4.92730000       5.11455000      -0.79718400       0.13310700       0.96147400      -0.07775685      -0.09253717       0.21816570
B        5.46078000       0.52907000       3.64926000      -0.06089300       0.25590500       0.66478200       0.01348586       0.00058379      -0.04586236
Si       2.81628000       5.37752000       2.00180000       6.85751800      -0.72904200      -5.53711500       0.37208974      -0.08746795      -0.11806995
Si       3.67557000       2.72706000       4.43876000      -0.82806600      -3.20205400       1.23328500      -0.22586549      -0.34272941       0.12185354
Si       4.50462000       4.23004000       1.13387000       0.98654700      -1.71437000      -0.38631400      -0.06745687      -0.04069095       0.05405178
Si       3.47649000       1.50306000       2.12993000       1.52361000       1.77373100       1.05470500       0.06578217       0.12313241       0.15314424
10
Lattice="12.0 0.0 0.0 0.0 12.0 0.0 0.0 0.0 12.0" Properties=species:S:1:pos:R:3:REF_forces:R:3:MACE_forces:R:3 config_type=Fe5B1Si4 REF_energy=-45.66921287 MACE_energy=-20.275855027056252 pbc="T T T"
Fe       4.03767000       2.41086000       6.51410000       1.86803300       0.00585300       0.51063200       0.42344142       0.09162184       0.03198263
Fe       4.79727000      11.75927000       9.09533000       0.54049700       0.45513700      -1.32376800      -0.18515347      -0.08167774       0.34110035
Fe       5.80034000       0.20229000       7.24671000      -0.98588000       0.20802500       0.94137200       0.16110520       0.11186238      -0.35117069