15
Lattice="5.664536 0.0 0.0 0.0 5.664536 0.0 0.0 0.0 5.664536" Properties=species:S:1:pos:R:3:REF_forces:R:3:MACE_forces:R:3 config_type=Fe13Si1B1 REF_energy=-108.19731369 MACE_energy=-103.28159456154462 pbc="T T T"
B        4.05901000       2.70568000       1.01305000      -1.63855300      -0.82904000       0.73367400      -1.55285755      -0.90304384       0.44081789
Si       2.82856000       0.10655000       3.62968000      -1.37485700       1.04288500       1.12851000      -1.79522096       1.56882007       1.77522637
Fe       2.58297000       1.18377000       1.20948000       0.93367000       0.14656100       0.38941200       1.71682554      -0.39387308      -0.04819160
Fe       0.38153000       0.68989000       3.08804000       0.88723900       3.84366500       0.15858400       0.50008458       3.67273853       0.67724680
Fe       1.54589000       2.38203000       4.72041000      -2.07199500      -0.40415400      -0.21731400      -2.42100006      -1.28044682      -0.49556828
Fe       0.00965000       3.55673000       0.57847000       1.87002200       0.46818400      -0.57360300       1.33592173       0.45143875      -0.28672252
Fe       4.86453000       2.71686000       2.75028000       1.57660800      -1.70083300       1.51404400       1.21794781      -1.88133585       1.47458798
Fe       4.62966000       0.98828000       5.06676000       0.07922500       1.31640700       1.29952100      -0.32792116       1.18120481       0.71431689
Fe       0.62475000       4.47163000       2.76945000       1.95380600      -3.21231900      -1.53544400       2.40052008      -2.87321541      -1.36624324
Fe       4.87774000       4.67993000       4.41653000      -0.64493200      -0.53503200       0.30435400      -0.22591658      -0.90035891       0.24318049
Fe       3.59664000       2.87221000       4.83153000       0.23532500      -0.37357900      -1.60523300       0.58132466       0.27438083      -1.18605211
Fe       0.66156000       0.50203000       0.73880000      -0.79576700      -0.85035100      -0.29863700      -1.33634328      -0.59873779      -0.10277812
Fe       2.16986000       4.37529000       0.15492000      -0.00013300       0.94038800       0.69583500       0.62563139       1.05212542       0.38591605
Fe       3.84648000       4.71531000       2.05312000       0.75417200       0.77170900      -2.19861800       1.45752535       1.17956801      -2.62858673
Fe       2.60819000       2.98871000       2.55518000      -1.76382900      -0.62449100       0.20491400      -2.17652155      -0.54926472       0.40285011
15
Lattice="5.664536 0.0 0.0 0.0 5.664536 0.0 0.0 0.0 5.664536" Properties=species:S:1:pos:R:3:REF_forces:R:3:MACE_forces:R:3 config_type=Fe13Si1B1 REF_energy=-108.15566798 MACE_energy=-102.43344367304601 pbc="T T T"
B        4.14873000       2.95379000       1.06658000       0.16200100      -0.29917000      -0.39394100       0.22087254      -0.20947932      -0.60478823
Si       3.70970000       1.75376000       4.70342000       2.39954500       1.99334400       0.69658000       2.61806689       2.13641348       0.90775852
Fe       0.77141000       5.48369000       0.61772000       0.15863900      -0.70463600       0.73580300       0.23848628      -1.04749306       0.82663401
Fe       2.70222000       5.62328000       2.66112000      -2.84701800       1.11988600      -2.77526600      -2.73276744       1.43456632      -2.65689598
Fe       2.40590000       1.49012000       0.76033000       2.44811900      -1.09619800       2.05304000       2.52473805      -0.78751016       2.22155508
Fe       0.05981000       0.25678000       4.08407000      -0.72088300      -0.40435400      -1.12965000      -0.53711712      -0.10494461      -1.38566994
Fe       2.69016000       5.46683000       4.60121000      -0.81406600      -1.20768000       2.79556400      -0.48169984      -1.24950069       2.67903727
Fe       1.47386000       1.76151000       4.03878000       0.25632200       2.31886200      -0.70750300       0.02437251       2.37264070      -0.72769667
Fe       5.58209000       3.47185000       2.53703000       2.04828400       0.56513400      -0.37619200       2.74997704       0.69227087       0.29942662
Fe       2.39981000       3.74553000       0.37431000      -0.23425500       0.56240000       0.37900500      -0.15871133      -0.00658704       0.36989525
Fe       4.35312000       1.55651000       2.64463000       0.99871600      -1.26274600      -2.03362100       0.99012719      -1.54371664      -2.13340872
Fe       4.71996000       4.32124000       4.97431000      -0.09930100      -2.16645100       0.36829600      -0.72822234      -2.92798038       0.02404895
Fe       4.35696000       5.05523000       1.41829000       0.42683500       0.31250100      -0.90165400       0.66137036       1.12497552      -0.95857672
Fe       0.47139000       2.05266000       0.60057000      -2.75315200       0.98470800      -0.10508100      -3.34631379       1.54989756      -0.32185510
Fe       3.41003000       3.62129000       2.91823000      -1.42978400      -0.71560000       1.39462200      -2.04317900      -1.43355253       1.46053566
15
Lattice="5.664536 0.0 0.0 0.0 5.664536 0.0 0.0 0.0 5.664536" Properties=species:S:1:pos:R:3:REF_forces:R:3:MACE_forces:R:3 config_type=Fe13Si1B1 REF_energy=-107.93807169 MACE_energy=-101.64435496999101 pbc="T T T"
B        3.89991000       3.42526000       0.45422000       0.11547000      -0.03553900       1.12451100       0.44137877      -0.28427907       1.49928670
Si       3.48762000       0.16630000       4.61337000       0.32574800       0.46308000      -0.01786500      -0.42435284       1.16728819       0.07718294
Fe       2.84778000       1.82037000       0.82228000      -0.98232500      -1.42221600      -1.89337000      -1.66316624      -1.27003957      -2.50632449
Fe       1.34857000       0.81784000       2.30075000      -0.53643500       0.46265000      -1.19653800      -0.28918141       0.84781278      -1.26371448
Fe       1.57642000       1.26355000       4.33118000       0.04619000       0.17232100       0.29400800       0.83973884       0.48539921       0.46570399
Fe       0.65713000       2.94926000       0.95396000      -1.72120200      -1.22782100       0.66296100      -1.84859272      -1.41216072       0.64071304
Fe       4.05988000       1.97076000       2.38888000       1.24013900      -1.25976700       1.55714700       1.70122983      -1.92407840       1.99410403
Fe       5.41523000       1.91313000       4.86891000      -2.57043500      -0.52568200      -0.40262900      -2.95761275      -0.31565689       0.01365320
Fe       1.35795000       4.61467000       3.62292000      -1.17710100      -0.19986100       1.26666800      -1.29557750      -0.03903639       1.14710142
Fe       4.95776000       4.27854000       4.85033000       2.20080800       0.77958800      -0.24901600       2.46493418      -0.13136509      -0.23345774
Fe       2.90817000       3.15860000       4.25698000      -0.87756600      -0.39846100       1.25184100      -0.63466863      -0.96128764       1.42738816
Fe       4.97903000       5.64594000       1.36431000      -0.69131800      -0.04726100      -0.44322300      -0.65836326       0.16594062      -0.67070206
Fe       1.21860000       5.04312000       0.28941000      -0.01329800       1.97019200      -1.42146800       0.17861910       2.22528541      -1.79707694
Fe       4.19049000       3.99341000       2.69223000       2.99720200       1.59092800      -0.45710200       2.58264491       2.05875626      -0.49305623
Fe       2.24232000       4.14646000       1.80095000       1.64412400      -0.32215200      -0.07592500       1.56296972      -0.61257871      -0.30080154
15
Lattice="5.664536 0.0 0.0 0.0 5.664536 0.0 0.0 0.0 5.664536" Properties=species:S:1:pos:R:3:REF_forces:R:3:MACE_forces:R:3 config_type=Fe13Si1B1 REF_energy=-111.97852358 MACE_energy=-107.43429684853186 pbc="T T T"
B        0.06916000       5.66432000       5.18689000       0.12008200      -0.64043800       0.01360000       0.22673147      -0.88941883      -0.05109231
Si       0.02740000       2.72248000       2.59682000      -0.95092500       0.36379500       0.29566700      -1.06607965       0.56967099       0.53414182
Fe       0.14116000       5.54768000       2.85133000       0.08282300      -0.00674100       0.52027800      -0.31877300       0.22048170       0.20224126
Fe       5.56722000       2.97052000       5.53670000      -0.67309900       0.24460700       0.18564600       0.21583599       0.20264193       0.14245785
Fe       2.56501000       0.00405000       5.40440000       0.68434000      -0.27592000       0.60718700       0.68966723      -0.35250436       0.64000548
Fe       2.97079000       2.77487000       5.60913000       0.61990200      -0.30745300       0.59180600      -0.29756484      -0.14928269      -0.07528006
Fe       3.14055000       2.58779000       2.39876000      -0.26535600       0.46856000       0.15364600      -0.76239813       0.25206380       0.62347987
Fe       1.27023000       1.29362000       1.29220000       0.59662900      -0.36144800      -0.82067800       0.39441796      -0.46073631      -0.88470494
Fe       1.26884000       1.40412000       4.24821000      -0.00500300       0.79776500      -0.57479700       0.08572440       1.17957424      -0.49812563
Fe       1.43809000       4.26211000       1.36341000       0.07769500      -0.05884300      -0.22592600       0.12261904      -0.03714454      -0.25450512
Fe       1.52070000       4.14480000       4.13170000      -0.18321100      -0.27105400      -0.71528600      -0.33719435      -0.71600534      -0.58263071
Fe       4.46936000       1.09579000       0.98330000      -0.11971100       0.01004100       0.24750400       0.30589914       0.01364045       0.10361750
Fe       4.16783000       1.22547000       4.11325000       0.42899800      -0.08684700      -0.08842400       0.63505642      -0.03720192       0.08362135
Fe       4.22673000       4.46813000       1.30140000       0.09689500      -0.37725000      -0.41990000       0.23428949      -0.20950367      -0.21092961
Fe       4.20815000       4.21553000       4.01300000      -0.51005900       0.50122500       0.22967700      -0.12823118       0.41372455       0.22770325
15
Lattice="5.664536 0.0 0.0 0.0 5.664536 0.0 0.0 0.0 5.664536" Properties=species:S:1:pos:R:3:REF_forces:R:3:MACE_forces:R:3 config_type=Fe13Si1B1 REF_energy=-111.93959828 MACE_energy=-107.19320897832685 pbc="T T T"
B        0.52210000       0.05440000       5.04153000      -0.83789800      -0.96014800      -0.42271900      -0.43033984      -0.66496834      -0.84909307
Si       5.59498000       2.75302000       2.63746000      -0.41285400      -0.16722200       0.32382300      -0.24389030      -0.42895866       0.24026408
Fe       0.17766000       0.05624000       2.77011000      -0.22089500       0.44737300       1.17937900      -0.38553582       0.01243374       1.04086000
Fe       5.59682000       2.78032000       5.61495000      -0.22239300       0.41310500      -0.03657000      -0.30314549       0.44443329      -0.58896608
Fe       2.71989000       5.37982000       5.43745000       0.17724800       0.17436200       0.47840000      -0.38542796       1.22347328       0.22911139
Fe       2.70157000       2.72483000       5.65192000       0.89303700       0.73165300       0.81071700       0.83620334       0.39867661       0.52198312
Fe       2.97278000       2.68063000       2.60608000       0.64664100       0.39382500      -0.89779500       0.74589479       0.66506847      -0.94155208
Fe       1.04462000       1.15381000       0.98518000       0.85892600      -0.28038300       0.02628300       1.07950668       0.10702659       0.44389277
Fe       1.65813000       1.50296000       3.98982000      -0.38663100      -0.26210300      -0.11433700      -0.80459828      -0.48733590       0.31365290
Fe       1.30631000       4.30849000       1.24352000      -0.41412900       0.11159100       0.24697100      -0.22614874      -0.28475061       0.23899887
Fe       1.58576000       4.06734000       3.99489000      -1.17533100      -0.00634600      -0.85725300      -1.14257555       0.04132774      -0.63392729
Fe       4.12820000       1.13618000       1.10587000       0.62554700       0.31979100       0.22031500       0.47299086       0.26194197       0.43193769
Fe       4.25787000       1.24949000       4.17529000      -0.08913900      -0.07677300       0.23295600       0.36403038       0.20031187       0.19190684
Fe       4.35495000       4.45297000       1.34581000      -0.13361000      -0.53467800      -0.51744000      -0.22798522      -0.73412616      -0.02120686
Fe       4.41108000       4.43949000       4.32316000       0.69148200      -0.30404700      -0.67272800       0.65102115      -0.75455388      -0.61786229
15
Lattice="5.664536 0.0 0.0 0.0 5.664536 0.0 0.0 0.0 5.664536" Properties=species:S:1:pos:R:3:REF_forces:R:3:MACE_forces:R:3 config_type=Fe13Si1B1 REF_energy=-111.86184603 MACE_energy=-105.50032580396652 pbc="T T T"
B        1.50863000       1.78767000       4.90152000      -0.44122900      -0.13378600       0.30200900      -0.05156233      -0.21436318       0.25266533
Si       4.79549000       2.24346000       2.10133000      -2.02834800      -2.06166200      -2.37230900      -2.44332814      -1.85546957      -2.28438598
Fe       3.20380000       0.75276000       3.12970000      -0.26094900      -0.46491400       0.88121400       0.15948057      -0.14539180       1.27843814
Fe       2.86828000       3.52346000       0.83472000       0.63525800      -0.40693500      -0.10677300       0.68087294      -1.00355152      -0.17583730
Fe       0.30208000       0.41203000       3.59178000       0.43152100       1.99959300       0.71104900       0.61802350       2.42752325       0.31416482
Fe       4.64149000       4.82814000       4.64319000      -2.32204000      -0.32641000       1.26424000      -2.88850760      -0.43670250       1.46845767
Fe       1.38623000       5.04883000       1.95913000       0.13404600      -0.76597900       0.26900800       0.45634925      -1.28294970       0.86147480
Fe       0.01651000       0.69762000       0.56316000       0.43357300       0.50429600      -0.59615700       0.25231270       0.41853286      -0.49740974
Fe       1.71843000       1.81951000       1.96274000      -0.50569400       0.44278300      -1.08150200      -0.83709588       0.85813179      -1.12054530
Fe       2.49328000       3.31853000       3.75571000       0.60663900       0.53722000       0.22889400       0.58368998       0.32728789       0.33124242
Fe       0.35204000       3.39611000       0.17394000       0.28417100      -0.58935200       0.45847800       0.23278112      -0.86199774       0.62851345
Fe       0.11270000       3.44811000       3.40342000       2.52442400       0.78461300       1.86263000       2.79311228       0.95952070       1.93596320
Fe       4.37430000       4.86511000       1.96411000       0.02203300      -0.44143500      -0.21812100       0.20300539      -0.47646954      -0.37771735
Fe       1.91304000       5.29856000       5.45252000       0.85584700       1.12077600      -1.36953800       1.04084157       1.06795844      -2.21901813
Fe       3.73798000       1.56980000       5.38787000      -0.36925300      -0.19880800      -0.23312100      -0.79997534       0.21794062      -0.39600603
15
Lattice="5.664536 0.0 0.0 0.0 5.664536 0.0 0.0 0.0 5.664536" Properties=species:S:1:pos:R:3:REF_forces:R:3:MACE_forces:R:3 config_type=Fe13Si1B1 REF_energy=-121.96103282 MACE_energy=-105.20713167299306 pbc="T T T"
B        1.89945000       0.62627000       3.85277000      -2.50069800       2.16966800      -1.53918900      -2.68982556       2.44778029      -0.82580789
Si       0.20120000       2.04269000       2.64503000       1.02931600      -0.66199100      -2.72694900       1.74486266       0.31597963      -2.44077335
Fe       2.66066000       5.42797000       2.26357000       0.53979700      -0.03646200      -1.31830900      -0.13449286      -0.62423023      -1.02205821
Fe       2.90276000       2.67008000       2.15492000      -1.83815700      -0.38139400      -2.84113500      -2.62363297       0.19131962      -2.24985382
Fe       3.76617000       1.41579000       3.61058000       1.59818700      -1.99316500       0.96094000       1.33573106      -1.33274711       1.50754149
Fe       4.35629000       3.78643000       3.20548000      -0.08184500       1.05317100       0.76552100      -0.29605364       0.90978572       1.01564310
Fe       4.47628000       4.06991000       0.64852000      -0.83953300      -0.22453300       0.86736600      -0.94990014      -0.46413890       0.35879522
Fe       4.19523000       1.12987000       0.84517000       0.20926900       0.78044000      -1.95195400       0.07032454       0.33912599      -0.95578668
Fe       1.20944000       0.98558000       0.54562000       0.36331500       0.64694800       1.15320100       0.62514679       0.62804866       0.33776485
Fe       2.93679000       5.24715000       4.85612000       1.78737200      -1.05335100       3.04321700       1.48753651      -1.54829799       2.17158187
Fe       2.46429000       3.02068000       4.78866000      -0.08418600      -0.93215200       0.71303400      -0.35904733      -0.96128783       0.05116226
Fe       5.64539000       2.77685000       4.69631000       0.33002600      -0.76378800       3.33994500       0.64424440      -0.24431879       2.46752462
Fe       1.14045000       3.92385000       0.99225000      -0.27335200       0.02348800       0.25089500       0.17479306      -0.02376898       0.07887669
Fe       0.17432000       5.38924000       4.59788000      -0.87103600      -0.20642700       0.99417600      -0.23299519      -0.23380485       0.44923761
Fe       5.41134000       5.44443000       2.36685000       0.63152700       1.57954900      -1.71076000       1.20330868       0.60055478      -0.94384774
15
Lattice="5.664536 0.0 0.0 0.0 5.664536 0.0 0.0 0.0 5.664536" Properties=species:S:1:pos:R:3:REF_forces:R:3:MACE_forces:R:3 config_type=Fe13Si1B1 REF_energy=-109.57699008 MACE_energy=-104.32035265930153 pbc="T T T"
B        1.60964000       1.20953000       3.30762000      -0.01479600      -0.54483200       0.36412700       0.06698311      -0.22041644       0.27809363
Si       1.95419000       3.78303000       0.40477000       2.58923000       0.78612200      -1.61162900       3.13994401       0.84652703      -1.66034017
Fe       3.57229000       4.89724000       1.78218000      -0.69680300       0.94883800       2.04020100      -0.95605734       0.98005705       1.95877187
Fe       3.21513000       2.00319000       1.86162000       1.30615200      -1.04311700      -1.34636300       1.11020640      -1.24894953      -1.56426583
Fe       5.12136000       1.05340000       3.05836000       0.48907600      -0.57242700       0.35981000       0.46890816      -0.99179230       0.62835410
Fe       5.33303000       3.41064000       3.19935000      -1.19050900       0.64225800       0.16946300      -0.69475929       0.83620569       0.01433693
Fe       4.69645000       3.56410000       0.59057000       0.42357200      -2.45414500       1.39631500       0.59595201      -2.97411513       1.62075294
Fe       5.00397000       0.79608000       0.67759000       0.28054300       1.18762000       0.69531900      -0.12851874       0.30294129       0.25734748
Fe       1.02131000       2.39370000       1.67631000      -1.48205000      -1.99677700       1.89497700      -1.72042031      -1.75815993       1.85551849
Fe       4.49205000       4.87623000       4.87240000      -1.22864200       1.13873400      -2.26444700      -1.37910335       1.50416794      -2.97951715
Fe       3.40200000       1.47027000       4.46233000      -0.01871000      -0.18409200       0.67173000      -0.22820924      -0.77464709       1.29191633
Fe       0.59504000       2.14210000       5.17631000       0.66645200      -0.32293300      -3.32851400       0.74821635      -0.81781611      -3.05239446
Fe       1.14446000       5.07983000       4.43636000      -0.37358200       1.06798600      -0.87155500      -0.21619842       1.30498924      -1.04940046
Fe       2.52599000       3.18146000       3.48749000      -0.80261000       1.79870400       1.25168000      -0.88812939       2.77540966       1.62138312
Fe       0.91985000       5.18762000       1.86613000       0.05267700      -0.45193900       0.57888600       0.08118606       0.23559864       0.77944319
15
Lattice="5.664536 0.0 0.0 0.0 5.664536 0.0 0.0 0.0 5.664536" Properties=species:S:1:pos:R:3:REF_forces:R:3:MACE_forces:R:3 config_type=Fe13Si1B1 REF_energy=-111.24757227 MACE_energy=-105.4905872927284 pbc="T T T"
B        2.53656000       2.62317000       3.66583000      -0.11566700      -0.22978700       0.53017200      -0.04728051       0.17698095       0.18795086
Si       0.67483000       4.27329000       2.69225000       0.92910600       0.68145900       0.71622000       0.91705277       0.37052960       1.19659127
Fe       5.14560000       5.37767000       1.05479000      -0.04263700       0.54874800      -0.34508500      -0.36806904       0.45744095      -0.06170897
Fe       5.17725000       2.96978000       1.28337000      -0.94481700       0.15150400      -1.65556500      -1.48529046       0.22229669      -2.05548769
Fe       4.74580000       3.13666000       4.02461000      -0.25444200      -0.82574700      -0.11998600       0.00014715      -0.52471617      -0.20449480
Fe       0.33821000       1.51110000       2.57588000       1.22080500      -1.49602800       0.46012600       1.78522354      -1.34084271       0.88396167
Fe       3.09808000       4.41167000       2.55098000       1.58954700      -0.62340300      -0.59486000       2.21285944      -1.59002066      -0.30845217
Fe       4.73088000       0.16933000       4.32731000       1.21238200      -0.98254900      -0.92008400       1.38330492      -1.35075252      -1.25343456
Fe       3.65998000       1.37781000       0.06620000      -0.53114300       0.39644200       0.40797800      -0.58697718       1.24998642      -0.22651731
Fe       3.63898000       1.27668000       2.55773000      -0.56432500       0.60761700      -1.09420600      -0.67855019       0.52023551      -0.51273486
Fe       3.30156000       4.03302000       5.51710000       0.66273100       0.68309200      -0.51252300       0.70066046       0.84679550      -1.21132756
Fe       2.04972000       2.93776000       1.03536000      -1.23701100      -0.98796000       1.66434700      -1.54814228      -1.34737787       2.07927883
Fe       2.16302000       5.60665000       3.99134000      -0.76618900       1.59088200       1.80303200      -1.02302324       1.49472620       1.71376604
Fe       0.95543000       1.84266000       4.95473000       0.27866900      -0.07002100       0.06014100      -0.05084436       0.09898912      -0.00567205
Fe       2.02568000       0.02468000       0.99960000      -1.43701000       0.55575000      -0.39970700      -1.21107101       0.71572898      -0.22171870
15
Lattice="5.664536 0.0 0.0 0.0 5.664536 0.0 0.0 0.0 5.664536" Properties=species:S:1:pos:R:3:REF_forces:R:3:MACE_forces:R:3 config_type=Fe13Si1B1 REF_energy=-108.79062395 MACE_energy=-104.4410348524629 pbc="T T T"
B        5.36400000       3.87568000       4.45905000       0.44648400       0.57032200       0.28604800       0.18498563       0.47640379      -0.03369851
Si       3.93387000       4.96403000       3.15711000      -4.30606800      -2.31482200      -2.68264300      -4.37885297      -2.72270922      -2.58544912
Fe       3.00216000       0.92096000       1.44117000      -0.76996800       0.42082500      -0.07835300      -0.74153498       0.00962829       0.19292693
Fe       1.34518000       5.62588000       2.73234000       2.41172500       0.19969700       0.20083700       2.96083546       0.27906701       0.22052040
Fe       0.44730000       2.09377000       4.98703000       1.17940300       0.68255400       0.66504100       1.68025605       0.93082912       0.44251178
Fe       0.30923000       3.79563000       2.39919000      -0.97580900      -1.20085800      -1.00234600      -0.69961100      -0.85021175      -0.78254823
Fe       0.18648000       1.06356000       1.31692000      -0.60348600       1.79501500       0.12312700      -0.09675498       2.05579050       0.19338868
Fe       4.00265000       2.83038000       0.00570000       0.03088500      -0.70677300      -0.45368100       0.13785762      -0.21384556      -0.43610155
Fe       5.37135000       0.30945000       4.05759000       2.43746500       1.21842000       2.05861100       1.77242463       1.58054605       2.28457385
Fe       2.32985000       3.12186000       1.52540000       0.40818200       0.55373600       0.67629300      -0.19898831       0.56388911       0.31304512
Fe       2.77320000       0.82160000       4.63749000       0.11143500       0.28254000       0.06072400       0.23144954       0.53942672       0.00850195
Fe       1.20304000       4.94889000       5.64649000       0.50304000      -0.54997900       0.60819900       0.16293463      -0.43171266       0.94056812
Fe       4.43330000       2.29054000       2.94368000      -1.10290800       0.42652200       0.72577900      -1.12318161       0.22319701       0.84598252
Fe       4.45738000       5.14386000       0.73674000       0.07827300      -0.88309100      -1.20270400      -0.10028128      -1.81821071      -1.22698289
Fe       2.20236000       3.55424000       4.11335000       0.15134500      -0.49410700       0.01507000       0.20846158      -0.62208772      -0.37723905
15
Lattice="5.664536 0.0 0.0 0.0 5.664536 0.0 0.0 0.0 5.664536" Properties=species:S:1:pos:R:3:REF_forces:R:3:MACE_forces:R:3 config_type=Fe13Si1B1 REF_energy=113.06017811 MACE_energy=-103.88713265535306 pbc="T T T"
B        1.39848000       0.19193000       0.61048000      -4.08297800       9.29302800       8.69098400       0.67300821       1.16505453       1.60771103
Si       2.92490000       2.16030000       2.14060000      -2.63496600       9.58037000      -0.49561900      -0.74489391      -1.13285740       1.95234087
Fe       2.86073000       2.70503000       5.26584000       4.32356800      10.20896900      -4.70309300       1.60124285      -1.84655447      -1.94360376
Fe       4.47802000       3.64784000       3.04881000      -8.75739200       8.66530300      12.20431400      -0.24310802       0.85336108       3.55730464
Fe       0.21576000       2.05514000       5.23160000     -18.24380600     -12.70694800      22.88283100       2.34784263       0.55887119      -0.62759046
Fe       0.44166000       2.36030000       2.32519000       9.91181000      13.04098500      -5.34425400       1.70935031      -0.51452577      -0.38636357
Fe       2.03954000       3.82953000       1.07367000      -9.51630500       5.90074000      24.04305300      -2.95687557       2.25817220       1.03136707
Fe       1.39295000       3.86962000       3.86875000       5.08493300      -5.56046400     -11.44166200       0.53446163      -0.73321434      -0.78306553
Fe       4.42805000       1.04262000       3.76613000      10.93879500       4.90624100      -3.25114800      -0.84127946       0.86878439       0.19408461
Fe       4.44753000       1.10914000       0.85325000      15.14670800      12.45203200      -7.47268500       0.04660148      -0.99814025       0.28964350
Fe       3.06886000       5.29358000       5.21060000      31.03933500     -34.73641400       1.35306500       0.19444213       0.16230107      -0.62162716
Fe       4.80801000       3.61880000       0.94850000       7.81841300       1.86551900       0.92546600      -1.14069322       0.42268811      -1.35682769
Fe       0.75179000       0.26400000       3.08937000     -19.58866100       1.56533600      18.55626500       0.85760066      -0.47181090      -1.32889070
Fe       3.22665000       5.43114000       2.39493000      -7.30714900       7.24190400      -9.20324300      -1.44201312      -0.25499241      -0.58865089
Fe       0.02250000       5.10600000       5.27962000     -14.13230600     -31.71660300     -46.74427400      -0.59568662      -0.33713702      -0.99583198
15
Lattice="5.664536 0.0 0.0 0.0 5.664536 0.0 0.0 0.0 5.664536" Properties=species:S:1:pos:R:3:REF_forces:R:3:MACE_forces:R:3 config_type=Fe13Si1B1 REF_energy=-108.9830283 MACE_energy=-103.82159972778996 pbc="T T T"
B        0.13992000       2.30465000       0.77632000      -2.78401400      -0.82058500       0.46110900      -2.07497833      -1.25920518       0.87740459
Si       2.50353000       2.08237000       3.22653000       0.57446500       0.76610200      -0.17485000       0.28702339       0.91394498      -0.18752243
Fe       1.09387000       3.72736000       2.17845000      -2.33299800      -0.65384800       2.12861500      -2.34624750      -0.76859700       1.95753750
Fe       3.95659000       1.68198000       5.11388000       0.36857700       0.27726400       0.90410800       0.53737749      -0.03323752       1.36227791
Fe       3.24055000       0.05102000       1.45794000       1.85872300       1.81044900       1.22583000       2.02615781       1.97029854       1.48795135
Fe       1.11690000       0.40651000       2.78471000       0.23956900      -0.40930100      -0.23173800      -0.04452431      -0.47251019       0.26368761
Fe       4.54933000       5.58716000       3.59286000      -0.31901000      -1.37235600       0.15251700       0.04950583      -1.46429806       0.23331819
Fe       2.02209000       2.17177000       0.81391000       2.28654300       0.57567400       0.95002900       1.86257960       0.69012846       1.02445904
Fe       2.49600000       4.37528000       3.91048000       1.01885200       0.91593900      -0.12431400       0.63752923      -0.10329071       0.30648000
Fe       1.55562000       0.82810000       4.97050000      -1.41574600      -0.55119900      -1.41023600      -1.28462770      -0.02634640      -1.35462629