1
Lattice="18.0 0.0 0.0 0.0 18.0 0.0 0.0 0.0 18.0" Properties=species:S:1:pos:R:3:REF_forces:R:3:MACE_forces:R:3 config_type=IsolatedAtom REF_energy=-3.283081 MACE_energy=-3.283081 pbc="T T T"
Fe       0.00000000       0.00000000       0.00000000       0.00000000       0.00000000       0.00000000      -0.00000000      -0.00000000      -0.00000000
1
Lattice="18.0 0.0 0.0 0.0 18.0 0.0 0.0 0.0 18.0" Properties=species:S:1:pos:R:3:REF_forces:R:3:MACE_forces:R:3 config_type=IsolatedAtom REF_energy=-0.81049333 MACE_energy=-0.81049333 pbc="T T T"
Si       0.00000000       0.00000000       0.00000000       0.00000000       0.00000000       0.00000000      -0.00000000      -0.00000000      -0.00000000
1
Lattice="18.0 0.0 0.0 0.0 18.0 0.0 0.0 0.0 18.0" Properties=species:S:1:pos:R:3:REF_forces:R:3:MACE_forces:R:3 config_type=IsolatedAtom REF_energy=-0.27559471 MACE_energy=-0.27559471 pbc="T T T"
B        0.00000000       0.00000000       0.00000000       0.00000000       0.00000000       0.00000000      -0.00000000      -0.00000000      -0.00000000
10
Lattice="9.0 0.0 0.0 0.0 9.0 0.0 0.0 0.0 9.0" Properties=species:S:1:pos:R:3:REF_forces:R:3:MACE_forces:R:3 config_type=Fe5B1Si4 REF_energy=-44.58554767 MACE_energy=-40.31605592200763 pbc="T T T"
Fe       3.50176000       8.99673000       3.09396000       0.95435000      -0.45803800       0.21474200       1.40011873      -0.25087334       0.52925160
Fe       6.43801000       1.81225000       6.74888000       1.10970900      -0.66476800      -1.17007400       0.94299357      -0.91309837      -1.68083978
Fe       2.41193000       0.16613000       4.88253000       0.30913200      -0.89996000       0.17011800       0.87135641      -1.06300292       0.03929475
Fe       8.52164000       3.22369000       0.34244000      -0.58790500      -0.47306700      -0.37861700      -0.19626022      -0.13149721      -0.24325876
Fe       5.66627000       2.92739000       3.87411000       4.77509600       2.80733600       2.40000400       2.47085082       2.01840104       1.79090525
B        5.18442000       1.13758000       3.40139000      -0.73957100       0.38065100       0.44676100      -1.38506833       0.59092806       0.45849379
Si       7.10242000       1.59600000       3.97694000       2.28029300      -3.67324000       1.18634800       2.02156295      -3.19834964       1.53792238
Si       7.70822000       8.86280000       6.25904000      -0.73207200       1.84563600      -0.48266000      -0.93541555       1.72811599      -0.41786575
Si       3.91832000       3.09724000       3.40175000      -6.85054500      -1.08983400      -1.75602400      -4.34919945      -1.65743730      -1.31414260
Si       3.63788000       6.78794000       4.49538000      -0.51848800       2.22528500      -0.63059800      -0.84093893       2.87681369      -0.69976087
10
Lattice="9.0 0.0 0.0 0.0 9.0 0.0 0.0 0.0 9.0" Properties=species:S:1:pos:R:3:REF_forces:R:3:MACE_forces:R:3 config_type=Fe5B1Si4 REF_energy=-48.18464377 MACE_energy=-45.20054780577465 pbc="T T T"
Fe       7.72908000       2.13801000       3.67226000      -0.72140700       1.38590200       0.18439100      -0.36257059       0.87814213      -0.19832161
Fe       2.56544000       0.37534000       3.55582000       0.62580800       1.02854400      -0.21951900       1.46367489       1.36573506      -0.29732678
Fe       5.84797000       2.87648000       5.04299000      -0.51992300      -1.03088200      -1.60504700      -1.01489867      -1.56757292      -0.57293000
Fe       2.00259000       1.62931000       5.21757000       0.16709900       0.68697000      -1.46342200       0.20891806       0.78270556      -1.58071360
Fe       3.04146000       3.03902000       3.03634000       2.84541400      -0.11631900       1.57660000       2.60398431      -0.50264855       1.65686163
B        4.26036000       4.67435000       3.72342000       0.68065500      -0.16735200      -1.56590600       1.17814587      -0.07136685      -1.97814877
Si       6.34493000       4.18783000       3.43892000      -0.40775000      -0.06673100      -0.63978400      -1.00503283       0.63217828      -1.02610121
Si       0.98363000       2.81182000       2.85911000      -2.44913300      -1.45501500       1.18349900      -1.98918655      -1.63922195       1.48268452
Si       4.97672000       0.35177000       3.88032000      -0.44220000       1.58116100       0.17191700      -1.18471432       2.21836028       0.20140001
Si       4.49316000       6.21641000       2.06194000       0.22143900      -1.84627800       2.37727300       0.10167984      -2.09631103       2.31259580
10
Lattice="11.0 0.0 0.0 0.0 11.0 0.0 0.0 0.0 11.0" Properties=species:S:1:pos:R:3:REF_forces:R:3:MACE_forces:R:3 config_type=Fe5B1Si4 REF_energy=-11.58855075 MACE_energy=-33.369767793561266 pbc="T T T"
Fe       8.76471000       0.00946000       6.88513000      -0.22819700       0.12237200      -0.55543600      -0.00000000      -0.00000000      -0.00000000
Fe       2.63377000       1.33277000       3.45207000      -0.77576300      -0.08136400      -0.00027500      -0.77480808      -0.15268901      -0.48891466
Fe       9.34605000       7.55219000       3.04608000      -1.57311900      -1.03473800      -0.15487700      -1.09358665      -0.54234890       0.00856010
Fe       6.36389000       7.12183000       3.09324000       1.09683100       0.04242100      -0.12816300       1.39904593       0.20190821      -0.02212434
Fe       1.35866000       0.14865000       4.85122000       1.24564900       1.43265900      -2.24078300      -0.36918779       0.51592150      -1.16068448
B        0.74424000       4.87887000       2.93866000      -1.13359500      -0.78566000      -1.94809000      -0.64588115      -0.84529467      -2.39653631
Si       0.41110000       1.07145000       2.73658000       1.34178700       0.50456200      -0.25058800       1.14584491       0.72287230      -0.62919872
Si       0.39736000       3.73439000       0.50956000      -1.07905800      -1.52336200       2.18566600      -0.92251492      -1.14847839       3.18831916
Si       9.29283000       2.08457000       0.89045000       2.55214100       0.43757800       0.40081500       2.76130162       0.87904322       0.56931933
Si       2.63700000       1.37373000       1.21644000      -1.44667700       0.88553200       2.69173100      -1.50021387       0.36906573       0.93125992
10
Lattice="11.0 0.0 0.0 0.0 11.0 0.0 0.0 0.0 11.0" Properties=species:S:1:pos:R:3:REF_forces:R:3:MACE_forces:R:3 config_type=Fe5B1Si4 REF_energy=-38.14997444 MACE_energy=-38.93015566963855 pbc="T T T"
Fe       0.55560000       8.19331000       7.06229000       0.60700700      -1.87987400       0.40247700       0.15368443      -1.01273199       0.37669485
Fe       0.49601000       2.54487000       7.78872000      -1.62914400       1.44061600       0.72816300      -1.72218984       1.47902531       0.69064423
Fe      10.07332000       3.88379000       9.42053000       1.49055100       0.96476400      -0.05327700       1.06648496       0.99753119       0.79323128
Fe       4.45932000       9.07691000       6.11289000       0.24660800      -0.52821700      -0.02378300       0.81650912      -0.95437062       0.03416667
Fe       9.54221000       0.53076000       0.28158000      -0.51209300       1.49842300      -0.39218500      -0.63199268       1.36320222      -0.25664173
B       10.69505000       5.70310000       8.40523000       0.71876200      -1.05034900      -0.26069900       0.95099750      -1.57552136      -0.86018660
Si       9.01619000       3.31434000       7.76349000       0.22101700      -0.39376100      -0.82483600       0.51405180      -0.09080451      -0.59356249
Si       1.50005000       6.10934000       7.36041000      -1.47354600       0.22179200       0.82993100      -1.75657870       0.07030167       0.80234910
Si       8.29851000       3.23195000      10.75936000       1.25238600      -0.70606300      -0.69191000       1.60044192      -1.06666193      -1.02050635
Si       3.13187000      10.62875000       6.05729000      -0.92154800       0.43266900       0.28612000      -0.99140850       0.79003004       0.03381105
10
Lattice="11.0 0.0 0.0 0.0 11.0 0.0 0.0 0.0 11.0" Properties=species:S:1:pos:R:3:REF_forces:R:3:MACE_forces:R:3 config_type=Fe5B1Si4 REF_energy=-39.54850766 MACE_energy=-40.795736171519366 pbc="T T T"
Fe       7.32260000       2.25273000       9.60151000      -0.81068000       1.95759200       1.52424100      -0.67134143       1.67437666       1.52834992
Fe       5.30456000       3.18059000       0.62935000       3.59407800       0.60301100       0.45004200       3.39485322       0.81072824       0.18292802
Fe       5.70290000       5.32015000      10.23784000      -0.55638700      -0.41691100      -0.58631200      -0.91851486      -1.10939246       0.06351361
Fe       7.71673000       4.32859000       0.10409000      -1.51783000      -0.48364700      -0.94636500      -1.71959934      -1.09298068      -0.89858123
Fe       5.73415000       7.17747000       8.80515000      -0.19559000      -2.26799700       1.43769300      -0.38811501      -0.92512897       0.57673008
B        3.53335000       2.44513000       3.14396000       1.80602500       1.42469000       1.46529900       2.02696260       1.27933095       1.09892131
Si       3.05847000       4.99331000       9.56994000       1.58460600       0.22347600       0.29443400       1.86520405      -0.35240376       0.96486698
Si       4.66874000       2.05360000       5.35076000      -1.23296500       0.33348000      -2.53096100      -1.44886187       0.49112918      -2.79713805
Si       3.35109000       3.37679000       0.23198000      -2.51854700       0.79060000      -0.76406600      -2.13771239       1.29506963      -0.18372314
Si       4.02675000       4.41289000       2.41329000      -0.15270900      -2.16429400      -0.34400600      -0.00287497      -2.07072880      -0.53586751
10
Lattice="11.0 0.0 0.0 0.0 11.0 0.0 0.0 0.0 11.0" Properties=species:S:1:pos:R:3:REF_forces:R:3:MACE_forces:R:3 config_type=Fe5B1Si4 REF_energy=-30.22050192 MACE_energy=-39.82810465270713 pbc="T T T"
Fe       7.51027000      10.11418000       2.18625000      -1.69790900       1.72973200      -1.19644900      -0.88921501       2.52692634      -0.68941444
Fe       6.52329000       1.24583000       0.98294000       2.87583100      -1.88416600       0.59355300       2.12547122      -0.52920567       1.61527622
Fe       8.50320000       0.98219000       3.23617000       1.14940800      -1.93965800      -1.01181700       0.41109805      -2.83531437      -2.36549112
Fe       8.81725000       8.60479000       1.96311000       1.70133000      -1.33465300       0.85149000       1.19178685      -1.14124124       0.00847904
Fe       9.16079000       2.26416000       1.64872000      -0.92180800       1.06168500      -1.01542500      -1.16172226       0.85708685      -0.62908944
B        8.94441000       4.16897000      10.47399000      -1.12511400       0.54375800       0.63670800      -0.84411422       0.44745152       0.59860825
Si      10.42398000       4.23416000       1.05026000      -1.52480000      -0.05410100      -1.01659500      -1.86816975      -0.70484027      -1.34649287
Si       7.56198000       2.31002000       4.34386000      -1.29363800       1.80115300       0.97958300      -0.98266462       1.77401383       0.59237605
Si       8.52672000       8.61906000      10.86161000      -0.94443500       0.65405000      -0.31886100      -0.37823181       0.51118794       0.62755989
Si       6.81456000       4.96874000       9.06450000       1.78113500      -0.57779900       1.49781200       2.39576155      -0.90606493       1.58818842
10
Lattice="11.0 0.0 0.0 0.0 11.0 0.0 0.0 0.0 11.0" Properties=species:S:1:pos:R:3:REF_forces:R:3:MACE_forces:R:3 config_type=Fe5B1Si4 REF_energy=-36.59236839 MACE_energy=-41.61602898966373 pbc="T T T"
Fe       3.58274000      10.79851000      10.73667000       0.11897900       0.22630100      -0.04976800      -0.00000000      -0.00000000      -0.00000000
Fe       1.22875000       2.49300000       7.21708000       2.26097500      -1.53625800       1.07649700       2.35865102      -1.31992742       1.44995884
Fe       0.83190000       3.93076000       3.48688000       1.35086000      -1.69250200       0.45489600       1.07019914      -1.41688304       0.25022596
Fe       9.39560000       2.93064000       6.23859000      -2.27414300      -0.91782300      -0.86979000      -3.02465191      -0.56172311      -1.52769141
Fe       1.68648000       4.78764000       5.33563000      -2.42207400      -1.78775100      -0.34755700      -1.53886897      -1.30256382       0.49393259
B        0.09146000       3.23421000       6.27209000       0.33374200       3.18943500      -3.08739300      -0.02655570       2.81668362      -4.28438184
Si      10.14804000       1.29848000       4.70398000      -0.27194000       2.69997500       0.88966000       0.45056306       2.66938461       1.42835163
Si       7.91960000       4.68330000       6.38399000       1.00571800      -0.89791700      -1.90531900       1.19772609      -1.02659083      -1.92691031
Si       7.87407000       3.80560000       3.83659000       1.69436900       0.65761100       2.09344900       1.89681764       0.69591852       2.40341560
Si      10.18862000       4.97429000       4.13294000      -1.79648600       0.05892800       1.74532400      -2.38388037      -0.55429854       1.71309894
10
Lattice="11.0 0.0 0.0 0.0 11.0 0.0 0.0 0.0 11.0" Properties=species:S:1:pos:R:3:REF_forces:R:3:MACE_forces:R:3 config_type=Fe5B1Si4 REF_energy=-37.97135349 MACE_energy=-37.883436843205715 pbc="T T T"
Fe       9.03194000       7.52207000       3.76953000      -0.41692800       1.06213800       1.36215600       0.07238137       1.22931081       0.93115811
Fe      10.13763000      10.16701000       4.97367000      -1.48414600      -0.40832500      -0.11078200      -0.99258856      -1.02152747      -0.29961565
Fe       4.72985000       7.86062000       7.54580000      -0.46341600      -0.84233600       0.25668000      -0.66973692      -1.26614928      -0.35774807
Fe       8.27206000       8.93115000       5.41966000       2.10203900       0.88604100      -1.49179500       0.96808529       0.94240863      -1.17774845
Fe       4.77388000       2.87329000       5.35297000      -0.27504900      -0.53922100      -0.84728100      -0.67359745      -0.46091080      -1.25842938
B        4.61354000       3.86066000       6.74103000      -0.14362800      -0.14915200      -1.57005500      -0.72614540       1.77342197       1.15984717
Si       1.64433000       3.13639000       3.91354000       3.75707800      -0.87803400      -0.36408100       3.65087220      -0.86327287      -1.01414477
Si       3.74801000       5.66030000       6.94882000       0.45210300       0.36957600       0.68487900       1.37245864       0.01205818       0.12505009
Si       8.69515000       0.60160000       4.24738000      -0.18983800      -0.10747800       0.51028900       0.00862215      -1.07175637       0.55938243
Si      10.87890000       3.62141000       4.73344000      -3.33821400       0.60679200       1.56999000      -3.01035133       0.72641720       1.33224851
10
Lattice="11.0 0.0 0.0 0.0 11.0 0.0 0.0 0.0 11.0" Properties=species:S:1:pos:R:3:REF_forces:R:3:MACE_forces:R:3 config_type=Fe5B1Si4 REF_energy=-19.85588119 MACE_energy=-32.00966142334194 pbc="T T T"
Fe       0.38446000       1.64586000       0.19247000      -0.31544900       0.99906300      -1.16531000      -0.31446229       0.10100565      -0.74052906
Fe       4.73202000       7.12132000       7.31276000       0.31929800      -0.23556100       1.39875500       0.17887215       0.32417294       1.49033656
Fe       0.36789000       2.73674000       6.71847000       0.18431700      -0.99436400      -3.07194200      -0.21419421      -0.80716334      -2.47754449
Fe      10.07665000       2.07009000       8.11408000      -1.05625300       0.13475800      -0.04421700      -0.92051925      -1.07425095       0.69118129
Fe       0.10300000      10.83360000       4.98934000      -0.79988200       1.03958000       0.82376600      -1.10920599       1.74907375       0.57978085
B        9.83138000       1.34479000       5.59342000       2.73003300      -1.60069300       1.71860100       2.29473534       0.02110143       2.02371538
Si       8.95511000       2.30296000       4.33786000      -0.13907800       0.36771900       0.11506400       0.26364640       0.01023346      -0.07660398
Si       3.99539000      10.22212000       8.61506000      -0.05248500      -0.48071600       0.18941400       0.23040264      -0.97067296      -0.40868883
Si       2.69021000       5.15166000      10.73011000       1.27722300       0.17680000       0.10453800       1.84877913       0.20577396      -0.42061905
Si       5.75937000       5.49395000      10.03068000      -2.14772600       0.59341400      -0.06866800      -2.25805392       0.44072606      -0.66102868
10
Lattice="9.0 0.0 0.0 0.0 9.0 0.0 0.0 0.0 9.0" Properties=species:S:1:pos:R:3:REF_forces:R:3:MACE_forces:R:3 config_type=Fe5B1Si4 REF_energy=-45.52219027 MACE_energy=-45.79203718945227 pbc="T T T"
Fe       5.95652000       4.23215000       1.06155000      -0.98767900      -0.50029400      -0.25142400      -0.88292582      -0.63391365      -0.65330473
Fe       5.13270000       1.30654000       4.87525000      -1.02972800       1.07694500      -1.04271400      -1.16427917       1.31672284      -1.20752865
Fe       0.86010000       2.84042000       4.86982000       1.78090900      -0.14036100      -0.68290200       1.21799615       0.06579010      -0.34608833
Fe       4.80846000       2.20734000       0.33653000      -0.70934400       1.79820400       0.47599400      -0.80624577       1.47148709       0.28655943
Fe       4.84818000       3.73073000       2.87016000      -1.11599800      -1.47444400      -2.61602900      -1.39317839      -0.94583416      -3.09955985
B        3.56051000       3.01373000       4.13091000      -3.27582500      -2.90917300      -1.74282900      -2.11440487      -2.58788084      -1.44111315
Si       3.41138000       1.28778000       2.26512000       0.95707700       2.37405100       0.97860500       1.27927675       2.34303751       0.57746486
Si       5.16668000       2.63723000       6.68984000       0.07413900      -1.78642600       3.36318600      -0.09155454      -1.75461241       3.84869589
Si       3.08125000       3.86721000       0.97989000       1.93930500      -1.04831500       0.87154200       2.41062280      -1.32468845       1.37491930
Si       4.99984000       3.77363000       4.95280000       2.36714300       2.60981200       0.64657100       1.54469287       2.04989197       0.65995522
10
Lattice="11.0 0.0 0.0 0.0 11.0 0.0 0.0 0.0 11.0" Properties=species:S:1:pos:R:3:REF_forces:R:3:MACE_forces:R:3 config_type=Fe5B1Si4 REF_energy=-40.7418507 MACE_energy=-36.367126199686936 pbc="T T T"
Fe       5.85212000       3.50546000       5.08734000       2.15677100      -0.79414500      -0.20894700       1.20322065      -0.33696065       0.21120203
Fe       4.00684000       5.71103000       1.22208000       0.17321900       0.19260900       1.30384500       0.18354074       0.42469428       1.66862230
Fe       8.00148000       8.34774000      10.98030000      -0.08363800      -0.04550400       0.02901100      -0.00000000      -0.00000000      -0.00000000
Fe       7.35073000       2.40140000       6.64128000       0.77906300       1.12479900      -0.71056100       1.37427036       1.44945569      -1.03780487
Fe      10.15241000       4.26124000       5.16236000      -1.21868700      -1.07976300       1.03424500      -1.89997521      -1.15276457       1.48089434
B        7.50939000       3.71850000       4.30627000       0.81775400       0.01191000       1.18846500       0.75142312      -0.26375293       1.54634006
Si       0.88259000       3.63568000       4.13155000       0.18457900       0.08807600       0.63549900       1.19524183       0.12146332       0.12866283
Si       4.29968000       6.34926000       4.01086000      -0.04470200      -1.65685100      -0.27530200      -0.27553844      -2.48777999      -0.46795371
Si       3.89182000       4.30839000       5.36988000      -1.81091900       1.59107900      -0.75492800      -1.04085816       1.75204150      -1.38088302
Si       9.83466000       2.97427000       7.53103000      -0.95344000       0.56779200      -2.24132700      -1.49132489       0.49360336      -2.14907997
10
Lattice="9.0 0.0 0.0 0.0 9.0 0.0 0.0 0.0 9.0" Properties=species:S:1:pos:R:3:REF_forces:R:3:MACE_forces:R:3 config_type=Fe5B1Si4 REF_energy=-42.65563223 MACE_energy=-44.69143567301087 pbc="T T T"
Fe       5.47398000       6.28103000       3.23251000       0.28355300       0.05833700       0.13117200      -0.07403641      -0.02187273      -0.13418342
Fe       3.48819000       2.94480000       4.89866000      -0.87509200      -0.04370600       2.15230300      -0.91834839       0.38682730       0.63617092
Fe       8.33854000       1.27421000       2.74786000      -0.46364400       1.92715600       1.33564000      -0.58737815       1.62782074       1.62295645
Fe       6.99962000       2.76087000       4.14267000      -0.44746500       1.63766400       1.88762100      -0.34502839       0.80552038       1.55349536
Fe       1.77962000       3.26723000       3.35280000      -0.52218800      -0.67489800       0.43259300       0.32884707      -0.61547921       0.72433093
B        4.62666000       4.86714000       2.55939000       0.26614600      -1.03752000       0.98811100      -0.60487012      -2.19866733       1.09122678
Si       4.18354000       2.39378000       2.99079000       0.43795500       1.50930000      -2.71878500       0.02625950       1.64665479      -1.35209304
Si       8.55432000       3.88894000       3.61944000       3.24804800       2.01892900      -1.57919700       2.66944155       0.59227307      -0.90958801
Si       5.93563000       1.17498000       3.69373000      -1.91994400      -5.30800600      -1.48876300      -0.81636905      -2.48287707      -1.09703797
Si       0.45419000       2.68863000       5.46192000      -0.00736800      -0.08725600      -1.14069400       0.32148238       0.25980006      -2.13527800
10
Lattice="11.0 0.0 0.0 0.0 11.0 0.0 0.0 0.0 11.0" Properties=species:S:1:pos:R:3:REF_forces:R:3:MACE_forces:R:3 config_type=Fe5B1Si4 REF_energy=-34.53347477 MACE_energy=-35.42500744388202 pbc="T T T"
Fe      10.38446000       0.44273000       4.17388000      -0.78237800      -1.86098300       1.10984900      -0.63633345      -2.02467464       1.50107288
Fe       5.58579000       5.13476000       2.28318000      -1.35183300       0.99168200      -0.54319900      -0.97232234      -0.09451316      -0.03268082
Fe      10.26893000       9.29847000       6.65501000       0.41344200       0.04548900      -2.04786900       0.51343148       0.01622721      -2.85067342
Fe       8.86095000       8.11141000       4.18070000       1.29133000       1.24914000       1.04926000       1.67121918       1.13117864       1.23105158
Fe       7.69214000       0.53975000       5.12514000       1.95509500      -0.60911200      -1.00813900       1.47960236      -0.23044836      -0.46755131
B        2.74748000       4.83778000       0.91630000       1.39196400      -0.12393600      -0.20196400       0.85926313       0.02759844       0.30233190
Si       6.81162000       1.90994000       1.53462000      -0.52184800       1.18261600      -0.41056100      -0.65686303       2.29299972      -0.74916358
Si       6.12115000       4.10888000       0.52255000       1.58173000      -1.75162600       1.46051100       1.40552868      -2.61846825       0.49209983
Si       0.91081000       9.09353000       4.86613000      -2.08485700       0.69467200       0.51855400      -3.02852079       1.10865236       0.58364537
Si       4.16380000       4.58033000      10.67633000      -1.89264600       0.18205800       0.07355800      -0.63500521       0.39144805      -0.01013244
10
Lattice="11.0 0.0 0.0 0.0 11.0 0.0 0.0 0.0 11.0" Properties=species:S:1:pos:R:3:REF_forces:R:3:MACE_forces:R:3 config_type=Fe5B1Si4 REF_energy=-31.88716106 MACE_energy=-37.40071729149146 pbc="T T T"
Fe       1.14116000       9.49468000      10.94139000       1.03161900      -0.44995100      -0.39877100       0.83083378      -1.06092226      -0.67697474
Fe       7.21367000       6.98307000       4.70883000      -2.94301400      -1.46688800       0.65014200      -2.17857650      -0.16728638      -0.00821190
Fe       4.99485000       7.56523000       3.28858000       0.74465000      -0.23543700      -0.70888800       0.81907660      -0.67922191      -0.11242756
Fe       5.11075000       7.78078000       8.02245000      -0.73545200      -0.54142400       0.97332500      -1.02468251      -1.24034805       0.66974866
Fe       5.02580000       6.08327000       6.14288000       1.53107200       2.07986600      -0.44355300       1.12763041       1.77256429      -0.58657288
B        6.46739000       9.52531000       1.42776000      -0.83213000      -0.78314200       0.21534400      -1.10412266      -1.00031026       0.17369897
Si       3.36056000       5.78054000       9.88043000      -0.35408900       0.86759200       0.70337500      -0.17800996       2.72716742       0.84837628
Si       3.68875000       6.60974000       1.41965000       0.14004300       0.02695200      -1.00259500       0.70740490       0.62542349      -0.70104570
Si       3.95884000       8.08391000      10.56775000       0.21456400       0.93303900      -0.26874100      -0.83683012      -0.84883058      -0.83491378
Si       1.56076000       7.66233000       9.57449000       1.20273800      -0.43060700       0.28036300       1.83727607      -0.12823577       1.22832265
10
Lattice="11.0 0.0 0.0 0.0 11.0 0.0 0.0 0.0 11.0" Properties=species:S:1:pos:R:3:REF_forces:R:3:MACE_forces:R:3 config_type=Fe5B1Si4 REF_energy=-2.43842541 MACE_energy=-41.495946512812694 pbc="T T T"
Fe       8.11536000       3.96737000       6.09845000       2.52379000       3.39438000      -0.10855200       2.78070196       3.41945705      -0.55393430
Fe       4.00538000       4.00868000       8.30741000       1.03860200       0.49749300      -0.86210200       0.52457973      -0.17525945      -0.50424281
Fe       6.21734000       5.49238000       4.54674000      -1.90078500      -0.53233000       2.45773000      -2.45036312      -1.88424049       1.54791393
Fe       6.37295000       3.21617000       6.01003000      -4.31429000      -0.62928100      -0.35144300      -4.50276241      -0.17425946      -0.96047036
Fe       4.28107000       3.14598000       4.09228000       1.68301600       0.43320300       1.57416800       1.58915212       0.82935092       0.96759044
B        8.65122000       7.09833000       7.78974000      -0.81588400      -0.96711600      -2.45875700      -0.07041659      -0.38988113      -0.81150891
Si       8.15838000       5.95236000       4.46257000       2.65955200       1.43037300       0.95638300       2.36920069       0.53076459       1.14416255
Si       7.04021000       6.67768000       6.73922000       0.09201500      -1.71899800      -1.45860000       0.42375685      -1.15201645      -1.10784329
Si       9.92269000       6.79012000       6.33039000      -1.33422700      -1.06385500      -1.26044000      -1.09005325      -0.51628676      -0.16499089
Si       6.58826000       7.17809000       3.12641000       0.36821200      -0.84387000       1.51161300       0.42620403      -0.48762881       0.44332364
10
Lattice="6.0 0.0 0.0 0.0 6.0 0.0 0.0 0.0 6.0" Properties=species:S:1:pos:R:3:REF_forces:R:3:MACE_forces:R:3 config_type=Fe5B1Si4 REF_energy=-53.79328822 MACE_energy=-50.16698827851879 pbc="T T T"
Fe       0.50996000       2.31585000       5.10298000      -1.26599000      -0.50951400      -1.36914100      -1.43179304      -0.25541855      -0.99776511
Fe       4.41281000       4.39623000       3.51801000       2.05066400       2.95138500      -2.14682400       1.71735946       2.58014845      -2.19952111
Fe       1.31233000       5.37312000       2.96679000      -9.66985400       0.21848200       6.64889800      -4.43987635       0.33514561       3.65417484
Fe       5.30196000       5.42046000       5.41384000       1.20364700       0.82237100      -1.12375000       0.72163478       0.50654862      -1.31420427
Fe       2.97556000       4.92730000       5.11455000      -0.79718400       0.13310700       0.96147400      -0.29970776      -0.25532640       0.26874617
B        5.46078000       0.52907000       3.64926000      -0.06089300       0.25590500       0.66478200      -0.59384081       0.07778615       0.31387831
Si       2.81628000       5.37752000       2.00180000       6.85751800      -0.72904200      -5.53711500       3.19593205      -0.09825667      -1.92201224
Si       3.67557000       2.72706000       4.43876000      -0.82806600      -3.20205400       1.23328500      -0.48216566      -2.69141023       0.81405652
Si       4.50462000       4.23004000       1.13387000       0.98654700      -1.71437000      -0.38631400       0.66665517      -0.81602006      -0.16842602
Si       3.47649000       1.50306000       2.12993000       1.52361000       1.77373100       1.05470500       0.94580217       0.61680308       1.55107290
10
Lattice="12.0 0.0 0.0 0.0 12.0 0.0 0.0 0.0 12.0" Properties=species:S:1:pos:R:3:REF_forces:R:3:MACE_forces:R:3 config_type=Fe5B1Si4 REF_energy=-45.66921287 MACE_energy=-41.81339107889461 pbc="T T T"
Fe       4.03767000       2.41086000       6.51410000       1.86803300       0.00585300       0.51063200       1.39747193      -0.16637302       0.27490304
Fe       4.79727000      11.75927000       9.09533000       0.54049700       0.45513700      -1.32376800       0.00642425       0.03444378      -0.05403544
Fe       5.80034000       0.20229000       7.24671000      -0.98588000       0.20802500       0.94137200      -0.76135634       0.90138359      -0.27745413