1
Lattice="18.0 0.0 0.0 0.0 18.0 0.0 0.0 0.0 18.0" Properties=species:S:1:pos:R:3:REF_forces:R:3:MACE_forces:R:3 config_type=IsolatedAtom REF_energy=-3.283081 MACE_energy=-3.283081 pbc="T T T"
Fe       0.00000000       0.00000000       0.00000000       0.00000000       0.00000000       0.00000000      -0.00000000      -0.00000000      -0.00000000
1
Lattice="18.0 0.0 0.0 0.0 18.0 0.0 0.0 0.0 18.0" Properties=species:S:1:pos:R:3:REF_forces:R:3:MACE_forces:R:3 config_type=IsolatedAtom REF_energy=-0.81049333 MACE_energy=-0.81049333 pbc="T T T"
Si       0.00000000       0.00000000       0.00000000       0.00000000       0.00000000       0.00000000      -0.00000000      -0.00000000      -0.00000000
1
Lattice="18.0 0.0 0.0 0.0 18.0 0.0 0.0 0.0 18.0" Properties=species:S:1:pos:R:3:REF_forces:R:3:MACE_forces:R:3 config_type=IsolatedAtom REF_energy=-0.27559471 MACE_energy=-0.27559471 pbc="T T T"
B        0.00000000       0.00000000       0.00000000       0.00000000       0.00000000       0.00000000      -0.00000000      -0.00000000      -0.00000000
10
Lattice="9.0 0.0 0.0 0.0 9.0 0.0 0.0 0.0 9.0" Properties=species:S:1:pos:R:3:REF_forces:R:3:MACE_forces:R:3 config_type=Fe5B1Si4 REF_energy=-44.58554767 MACE_energy=-21.291550720133642 pbc="T T T"
Fe       3.50176000       8.99673000       3.09396000       0.95435000      -0.45803800       0.21474200       0.75998110      -0.59235988      -0.95443742
Fe       6.43801000       1.81225000       6.74888000       1.10970900      -0.66476800      -1.17007400       0.21543837      -0.26331099      -0.41654010
Fe       2.41193000       0.16613000       4.88253000       0.30913200      -0.89996000       0.17011800      -0.53087021      -0.30338762       1.18479097
Fe       8.52164000       3.22369000       0.34244000      -0.58790500      -0.47306700      -0.37861700       0.00133913       0.00090657       0.00166683
Fe       5.66627000       2.92739000       3.87411000       4.77509600       2.80733600       2.40000400       0.60171257       1.55405151       0.58839225
B        5.18442000       1.13758000       3.40139000      -0.73957100       0.38065100       0.44676100      -0.25715300      -0.31406888      -0.12356206
Si       7.10242000       1.59600000       3.97694000       2.28029300      -3.67324000       1.18634800       1.26932317      -1.26756361       0.49158964
Si       7.70822000       8.86280000       6.25904000      -0.73207200       1.84563600      -0.48266000      -0.20679573       0.36157645      -0.05857036
Si       3.91832000       3.09724000       3.40175000      -6.85054500      -1.08983400      -1.75602400      -1.59905538      -0.10592799      -0.46870588
Si       3.63788000       6.78794000       4.49538000      -0.51848800       2.22528500      -0.63059800      -0.25392003       0.93008445      -0.24462387
10
Lattice="9.0 0.0 0.0 0.0 9.0 0.0 0.0 0.0 9.0" Properties=species:S:1:pos:R:3:REF_forces:R:3:MACE_forces:R:3 config_type=Fe5B1Si4 REF_energy=-48.18464377 MACE_energy=-22.47972884580876 pbc="T T T"
Fe       7.72908000       2.13801000       3.67226000      -0.72140700       1.38590200       0.18439100       0.09659437       0.59030639      -0.17475925
Fe       2.56544000       0.37534000       3.55582000       0.62580800       1.02854400      -0.21951900       0.75866392      -0.11380965      -0.95098256
Fe       5.84797000       2.87648000       5.04299000      -0.51992300      -1.03088200      -1.60504700      -0.31490955      -0.63695323       0.45745729
Fe       2.00259000       1.62931000       5.21757000       0.16709900       0.68697000      -1.46342200      -0.23198326       1.02161134       0.28124522
Fe       3.04146000       3.03902000       3.03634000       2.84541400      -0.11631900       1.57660000       1.14979505      -0.35208333       0.63038378
B        4.26036000       4.67435000       3.72342000       0.68065500      -0.16735200      -1.56590600       0.13033973      -0.19411380      -0.18519899
Si       6.34493000       4.18783000       3.43892000      -0.40775000      -0.06673100      -0.63978400       0.31159878       0.19180179      -0.64041929
Si       0.98363000       2.81182000       2.85911000      -2.44913300      -1.45501500       1.18349900      -1.52689751      -0.51904163       0.35755277
Si       4.97672000       0.35177000       3.88032000      -0.44220000       1.58116100       0.17191700      -0.38493167       0.21502942       0.01740121
Si       4.49316000       6.21641000       2.06194000       0.22143900      -1.84627800       2.37727300       0.01173015      -0.20274729       0.20731981
10
Lattice="11.0 0.0 0.0 0.0 11.0 0.0 0.0 0.0 11.0" Properties=species:S:1:pos:R:3:REF_forces:R:3:MACE_forces:R:3 config_type=Fe5B1Si4 REF_energy=-11.58855075 MACE_energy=-21.22740260933287 pbc="T T T"
Fe       8.76471000       0.00946000       6.88513000      -0.22819700       0.12237200      -0.55543600      -0.00000000      -0.00000000      -0.00000000
Fe       2.63377000       1.33277000       3.45207000      -0.77576300      -0.08136400      -0.00027500       0.25556948       0.37200742      -0.21627425
Fe       9.34605000       7.55219000       3.04608000      -1.57311900      -1.03473800      -0.15487700      -0.20254101      -0.03850996       0.00298911
Fe       6.36389000       7.12183000       3.09324000       1.09683100       0.04242100      -0.12816300       0.20991245       0.03029273      -0.00331957
Fe       1.35866000       0.14865000       4.85122000       1.24564900       1.43265900      -2.24078300      -0.63496046      -0.19695892       0.00960090
B        0.74424000       4.87887000       2.93866000      -1.13359500      -0.78566000      -1.94809000      -0.03171658      -0.07280698      -0.16957643
Si       0.41110000       1.07145000       2.73658000       1.34178700       0.50456200      -0.25058800       0.62387369      -0.08928370       0.21822237
Si       0.39736000       3.73439000       0.50956000      -1.07905800      -1.52336200       2.18566600      -0.30069070      -0.19713318       0.23938395
Si       9.29283000       2.08457000       0.89045000       2.55214100       0.43757800       0.40081500       0.41237594       0.22268609       0.00924394
Si       2.63700000       1.37373000       1.21644000      -1.44667700       0.88553200       2.69173100      -0.33182282      -0.03029350      -0.09027002
10
Lattice="11.0 0.0 0.0 0.0 11.0 0.0 0.0 0.0 11.0" Properties=species:S:1:pos:R:3:REF_forces:R:3:MACE_forces:R:3 config_type=Fe5B1Si4 REF_energy=-38.14997444 MACE_energy=-21.73351135204803 pbc="T T T"
Fe       0.55560000       8.19331000       7.06229000       0.60700700      -1.87987400       0.40247700       0.02239074      -0.04321054       0.00590305
Fe       0.49601000       2.54487000       7.78872000      -1.62914400       1.44061600       0.72816300      -0.77162775       0.38002527       0.22217150
Fe      10.07332000       3.88379000       9.42053000       1.49055100       0.96476400      -0.05327700       0.93928259       0.44232368       0.78064599
Fe       4.45932000       9.07691000       6.11289000       0.24660800      -0.52821700      -0.02378300       0.92295876      -1.07897435       0.03865798
Fe       9.54221000       0.53076000       0.28158000      -0.51209300       1.49842300      -0.39218500      -0.04879847       0.10572810      -0.02037195
B       10.69505000       5.70310000       8.40523000       0.71876200      -1.05034900      -0.26069900      -0.03606852      -0.33231679       0.06529047
Si       9.01619000       3.31434000       7.76349000       0.22101700      -0.39376100      -0.82483600      -0.09781714      -0.48636984      -1.03099870
Si       1.50005000       6.10934000       7.36041000      -1.47354600       0.22179200       0.82993100      -0.12346371       0.01971357       0.05322881
Si       8.29851000       3.23195000      10.75936000       1.25238600      -0.70606300      -0.69191000       0.11855011      -0.08357944      -0.07682407
Si       3.13187000      10.62875000       6.05729000      -0.92154800       0.43266900       0.28612000      -0.92540661       1.07666034      -0.03770308
10
Lattice="11.0 0.0 0.0 0.0 11.0 0.0 0.0 0.0 11.0" Properties=species:S:1:pos:R:3:REF_forces:R:3:MACE_forces:R:3 config_type=Fe5B1Si4 REF_energy=-39.54850766 MACE_energy=-22.121823590658114 pbc="T T T"
Fe       7.32260000       2.25273000       9.60151000      -0.81068000       1.95759200       1.52424100      -0.07684525       0.42243183       0.40563154
Fe       5.30456000       3.18059000       0.62935000       3.59407800       0.60301100       0.45004200       1.82415449       0.57338550       0.26184463
Fe       5.70290000       5.32015000      10.23784000      -0.55638700      -0.41691100      -0.58631200      -0.51435229      -0.54761784       0.24319195
Fe       7.71673000       4.32859000       0.10409000      -1.51783000      -0.48364700      -0.94636500      -0.46351254      -0.56758691      -0.15877580
Fe       5.73415000       7.17747000       8.80515000      -0.19559000      -2.26799700       1.43769300      -0.00590136       0.17140220      -0.13524570
B        3.53335000       2.44513000       3.14396000       1.80602500       1.42469000       1.46529900       0.14138610       0.13447356       0.09536718
Si       3.05847000       4.99331000       9.56994000       1.58460600       0.22347600       0.29443400       0.43874212      -0.07778864       0.23733344
Si       4.66874000       2.05360000       5.35076000      -1.23296500       0.33348000      -2.53096100      -0.10747833       0.03784575      -0.20948006
Si       3.35109000       3.37679000       0.23198000      -2.51854700       0.79060000      -0.76406600      -1.35884223       0.48321061       0.02366833
Si       4.02675000       4.41289000       2.41329000      -0.15270900      -2.16429400      -0.34400600       0.12264929      -0.62975608      -0.76353551
10
Lattice="11.0 0.0 0.0 0.0 11.0 0.0 0.0 0.0 11.0" Properties=species:S:1:pos:R:3:REF_forces:R:3:MACE_forces:R:3 config_type=Fe5B1Si4 REF_energy=-30.22050192 MACE_energy=-21.2529797624751 pbc="T T T"
Fe       7.51027000      10.11418000       2.18625000      -1.69790900       1.72973200      -1.19644900      -1.35447306       1.51639484      -0.22366009
Fe       6.52329000       1.24583000       0.98294000       2.87583100      -1.88416600       0.59355300       0.61762920      -0.28812392       0.45368057
Fe       8.50320000       0.98219000       3.23617000       1.14940800      -1.93965800      -1.01181700       0.34255933      -1.66221208      -0.11630610
Fe       8.81725000       8.60479000       1.96311000       1.70133000      -1.33465300       0.85149000       1.29517953      -1.35393711       0.74283106
Fe       9.16079000       2.26416000       1.64872000      -0.92180800       1.06168500      -1.01542500       0.25159744       0.94946622      -1.02394242
B        8.94441000       4.16897000      10.47399000      -1.12511400       0.54375800       0.63670800      -0.04156984       0.05490819       0.03340918
Si      10.42398000       4.23416000       1.05026000      -1.52480000      -0.05410100      -1.01659500      -0.33620457      -0.34257871      -0.02539392
Si       7.56198000       2.31002000       4.34386000      -1.29363800       1.80115300       0.97958300      -0.74886258       1.09499394       0.86083515
Si       8.52672000       8.61906000      10.86161000      -0.94443500       0.65405000      -0.31886100      -0.18872232       0.09227661      -0.80919283
Si       6.81456000       4.96874000       9.06450000       1.78113500      -0.57779900       1.49781200       0.16286688      -0.06118798       0.10773941
10
Lattice="11.0 0.0 0.0 0.0 11.0 0.0 0.0 0.0 11.0" Properties=species:S:1:pos:R:3:REF_forces:R:3:MACE_forces:R:3 config_type=Fe5B1Si4 REF_energy=-36.59236839 MACE_energy=-21.558376788214762 pbc="T T T"
Fe       3.58274000      10.79851000      10.73667000       0.11897900       0.22630100      -0.04976800      -0.00000000      -0.00000000      -0.00000000
Fe       1.22875000       2.49300000       7.21708000       2.26097500      -1.53625800       1.07649700       1.08088081      -0.61588764       0.81607353
Fe       0.83190000       3.93076000       3.48688000       1.35086000      -1.69250200       0.45489600       0.71146625      -1.02735369      -1.13459066
Fe       9.39560000       2.93064000       6.23859000      -2.27414300      -0.91782300      -0.86979000      -1.19310286      -0.35890518      -0.32296701
Fe       1.68648000       4.78764000       5.33563000      -2.42207400      -1.78775100      -0.34755700      -0.41544735      -0.17048519       0.91801105
B        0.09146000       3.23421000       6.27209000       0.33374200       3.18943500      -3.08739300       0.43525223       1.35157491      -1.44204839
Si      10.14804000       1.29848000       4.70398000      -0.27194000       2.69997500       0.88966000       0.00972537       0.36272014       0.28664011
Si       7.91960000       4.68330000       6.38399000       1.00571800      -0.89791700      -1.90531900      -0.00736964      -0.11936775      -0.41363817
Si       7.87407000       3.80560000       3.83659000       1.69436900       0.65761100       2.09344900       0.52796888       0.30547266       0.58284071
Si      10.18862000       4.97429000       4.13294000      -1.79648600       0.05892800       1.74532400      -1.14937369       0.27223172       0.70967883
10
Lattice="11.0 0.0 0.0 0.0 11.0 0.0 0.0 0.0 11.0" Properties=species:S:1:pos:R:3:REF_forces:R:3:MACE_forces:R:3 config_type=Fe5B1Si4 REF_energy=-37.97135349 MACE_energy=-21.303990206143915 pbc="T T T"
Fe       9.03194000       7.52207000       3.76953000      -0.41692800       1.06213800       1.36215600       0.17871187      -0.14930573      -0.24825980
Fe      10.13763000      10.16701000       4.97367000      -1.48414600      -0.40832500      -0.11078200       0.85273797      -0.31367941       0.09967757
Fe       4.72985000       7.86062000       7.54580000      -0.46341600      -0.84233600       0.25668000      -0.22370473      -0.50132431      -0.13601633
Fe       8.27206000       8.93115000       5.41966000       2.10203900       0.88604100      -1.49179500      -0.52194954       0.13185906       0.32641980
Fe       4.77388000       2.87329000       5.35297000      -0.27504900      -0.53922100      -0.84728100       0.11460612      -0.83498322      -1.20071603
B        4.61354000       3.86066000       6.74103000      -0.14362800      -0.14915200      -1.57005500      -0.11171148       0.79985608       1.19803919
Si       1.64433000       3.13639000       3.91354000       3.75707800      -0.87803400      -0.36408100       0.99698393      -0.27066636      -0.44731518
Si       3.74801000       5.66030000       6.94882000       0.45210300       0.36957600       0.68487900       0.20381184       0.53788417       0.13088160
Si       8.69515000       0.60160000       4.24738000      -0.18983800      -0.10747800       0.51028900      -0.50771310       0.33359789      -0.17743973
Si      10.87890000       3.62141000       4.73344000      -3.33821400       0.60679200       1.56999000      -0.98177288       0.26676185       0.45472891
10
Lattice="11.0 0.0 0.0 0.0 11.0 0.0 0.0 0.0 11.0" Properties=species:S:1:pos:R:3:REF_forces:R:3:MACE_forces:R:3 config_type=Fe5B1Si4 REF_energy=-19.85588119 MACE_energy=-20.499444218126996 pbc="T T T"
Fe       0.38446000       1.64586000       0.19247000      -0.31544900       0.99906300      -1.16531000      -0.00391012       0.00126620      -0.00920373
Fe       4.73202000       7.12132000       7.31276000       0.31929800      -0.23556100       1.39875500       0.00469001       0.00377166       0.03123842
Fe       0.36789000       2.73674000       6.71847000       0.18431700      -0.99436400      -3.07194200       0.82870580       0.27877773      -1.61729961
Fe      10.07665000       2.07009000       8.11408000      -1.05625300       0.13475800      -0.04421700      -1.25002260      -0.72496909       1.00953238
Fe       0.10300000      10.83360000       4.98934000      -0.79988200       1.03958000       0.82376600      -0.01775831       0.02789164      -0.00124743
B        9.83138000       1.34479000       5.59342000       2.73003300      -1.60069300       1.71860100       0.77454997       0.03686933       1.12018326
Si       8.95511000       2.30296000       4.33786000      -0.13907800       0.36771900       0.11506400      -0.33156474       0.38016419      -0.50196488
Si       3.99539000      10.22212000       8.61506000      -0.05248500      -0.48071600       0.18941400       0.00426679      -0.01796033      -0.00754256
Si       2.69021000       5.15166000      10.73011000       1.27722300       0.17680000       0.10453800       0.02883215       0.00321565      -0.00657076
Si       5.75937000       5.49395000      10.03068000      -2.14772600       0.59341400      -0.06866800      -0.03778894       0.01097302      -0.01712510
10
Lattice="9.0 0.0 0.0 0.0 9.0 0.0 0.0 0.0 9.0" Properties=species:S:1:pos:R:3:REF_forces:R:3:MACE_forces:R:3 config_type=Fe5B1Si4 REF_energy=-45.52219027 MACE_energy=-22.778894255821186 pbc="T T T"
Fe       5.95652000       4.23215000       1.06155000      -0.98767900      -0.50029400      -0.25142400       0.27561984       0.15234045      -0.88228279
Fe       5.13270000       1.30654000       4.87525000      -1.02972800       1.07694500      -1.04271400      -0.46757427       0.85903284      -0.47473139
Fe       0.86010000       2.84042000       4.86982000       1.78090900      -0.14036100      -0.68290200       0.08576468       0.00549907      -0.02348611
Fe       4.80846000       2.20734000       0.33653000      -0.70934400       1.79820400       0.47599400      -0.58544468       0.41050726       0.36996173
Fe       4.84818000       3.73073000       2.87016000      -1.11599800      -1.47444400      -2.61602900      -0.77908470      -0.45144374      -1.21091315
B        3.56051000       3.01373000       4.13091000      -3.27582500      -2.90917300      -1.74282900      -0.55238380      -1.08340715       0.07988250
Si       3.41138000       1.28778000       2.26512000       0.95707700       2.37405100       0.97860500       0.46138739       0.73875696      -0.24191736
Si       5.16668000       2.63723000       6.68984000       0.07413900      -1.78642600       3.36318600      -0.03419247      -0.34522681       1.23612340
Si       3.08125000       3.86721000       0.97989000       1.93930500      -1.04831500       0.87154200       0.98977193      -0.52083865       0.37229443
Si       4.99984000       3.77363000       4.95280000       2.36714300       2.60981200       0.64657100       0.60613608       0.23477977       0.77506873
10
Lattice="11.0 0.0 0.0 0.0 11.0 0.0 0.0 0.0 11.0" Properties=species:S:1:pos:R:3:REF_forces:R:3:MACE_forces:R:3 config_type=Fe5B1Si4 REF_energy=-40.7418507 MACE_energy=-21.368621892532943 pbc="T T T"
Fe       5.85212000       3.50546000       5.08734000       2.15677100      -0.79414500      -0.20894700       0.08533133      -0.43321508       0.26504902
Fe       4.00684000       5.71103000       1.22208000       0.17321900       0.19260900       1.30384500       0.02647517       0.05769624       0.25214341
Fe       8.00148000       8.34774000      10.98030000      -0.08363800      -0.04550400       0.02901100      -0.00000000      -0.00000000      -0.00000000
Fe       7.35073000       2.40140000       6.64128000       0.77906300       1.12479900      -0.71056100       0.44085090       0.24607515      -0.07155949
Fe      10.15241000       4.26124000       5.16236000      -1.21868700      -1.07976300       1.03424500      -0.96801391       0.07169017       0.91620709
B        7.50939000       3.71850000       4.30627000       0.81775400       0.01191000       1.18846500       0.78003273      -0.00725742      -0.13022060
Si       0.88259000       3.63568000       4.13155000       0.18457900       0.08807600       0.63549900       0.87019444      -0.30853617      -0.50801206
Si       4.29968000       6.34926000       4.01086000      -0.04470200      -1.65685100      -0.27530200      -0.09455595      -0.45967043       0.01081978
Si       3.89182000       4.30839000       5.36988000      -1.81091900       1.59107900      -0.75492800      -0.73258221       0.71100254      -0.14607769
Si       9.83466000       2.97427000       7.53103000      -0.95344000       0.56779200      -2.24132700      -0.40773250       0.12221500      -0.58834945
10
Lattice="9.0 0.0 0.0 0.0 9.0 0.0 0.0 0.0 9.0" Properties=species:S:1:pos:R:3:REF_forces:R:3:MACE_forces:R:3 config_type=Fe5B1Si4 REF_energy=-42.65563223 MACE_energy=-22.47263217028231 pbc="T T T"
Fe       5.47398000       6.28103000       3.23251000       0.28355300       0.05833700       0.13117200       0.52968547       0.88389303       0.42076731
Fe       3.48819000       2.94480000       4.89866000      -0.87509200      -0.04370600       2.15230300      -0.14401457       0.20693012       1.15544061
Fe       8.33854000       1.27421000       2.74786000      -0.46364400       1.92715600       1.33564000      -0.51023139       0.46174879       0.43467372
Fe       6.99962000       2.76087000       4.14267000      -0.44746500       1.63766400       1.88762100      -0.02834397       0.38535535       0.85731893
Fe       1.77962000       3.26723000       3.35280000      -0.52218800      -0.67489800       0.43259300      -0.14167748      -0.27032067       0.15783068
B        4.62666000       4.86714000       2.55939000       0.26614600      -1.03752000       0.98811100      -0.58074096      -1.13438466      -0.36275810
Si       4.18354000       2.39378000       2.99079000       0.43795500       1.50930000      -2.71878500      -0.13470261       0.21125415      -0.90338653
Si       8.55432000       3.88894000       3.61944000       3.24804800       2.01892900      -1.57919700       1.36825975       0.33402631      -0.32388302
Si       5.93563000       1.17498000       3.69373000      -1.91994400      -5.30800600      -1.48876300      -0.28645523      -1.34676198      -0.54474427
Si       0.45419000       2.68863000       5.46192000      -0.00736800      -0.08725600      -1.14069400      -0.07177901       0.26825958      -0.89125933
10
Lattice="11.0 0.0 0.0 0.0 11.0 0.0 0.0 0.0 11.0" Properties=species:S:1:pos:R:3:REF_forces:R:3:MACE_forces:R:3 config_type=Fe5B1Si4 REF_energy=-34.53347477 MACE_energy=-21.181732247281182 pbc="T T T"
Fe      10.38446000       0.44273000       4.17388000      -0.78237800      -1.86098300       1.10984900      -0.24797634      -0.20546381       0.21596994
Fe       5.58579000       5.13476000       2.28318000      -1.35183300       0.99168200      -0.54319900      -0.31907079       0.47582831       0.76802596
Fe      10.26893000       9.29847000       6.65501000       0.41344200       0.04548900      -2.04786900       0.26531855      -0.07699646      -0.49704821
Fe       8.86095000       8.11141000       4.18070000       1.29133000       1.24914000       1.04926000       0.09732330       0.06315491       0.12244509
Fe       7.69214000       0.53975000       5.12514000       1.95509500      -0.60911200      -1.00813900       0.37666580      -0.01190611      -0.13373176
B        2.74748000       4.83778000       0.91630000       1.39196400      -0.12393600      -0.20196400      -0.27487742       0.05058691       0.24314938
Si       6.81162000       1.90994000       1.53462000      -0.52184800       1.18261600      -0.41056100      -0.13783600       0.43650198      -0.19307531
Si       6.12115000       4.10888000       0.52255000       1.58173000      -1.75162600       1.46051100       0.72392579      -1.01241294      -0.53779165
Si       0.91081000       9.09353000       4.86613000      -2.08485700       0.69467200       0.51855400      -0.49133366       0.23121512       0.29235537
Si       4.16380000       4.58033000      10.67633000      -1.89264600       0.18205800       0.07355800       0.00786077       0.04949209      -0.28029880
10
Lattice="11.0 0.0 0.0 0.0 11.0 0.0 0.0 0.0 11.0" Properties=species:S:1:pos:R:3:REF_forces:R:3:MACE_forces:R:3 config_type=Fe5B1Si4 REF_energy=-31.88716106 MACE_energy=-21.882783971181805 pbc="T T T"
Fe       1.14116000       9.49468000      10.94139000       1.03161900      -0.44995100      -0.39877100       0.06746275      -0.11668887      -0.07598047
Fe       7.21367000       6.98307000       4.70883000      -2.94301400      -1.46688800       0.65014200      -0.80544159      -0.04671700      -0.01921565
Fe       4.99485000       7.56523000       3.28858000       0.74465000      -0.23543700      -0.70888800       0.13598824      -0.34911710      -0.07997998
Fe       5.11075000       7.78078000       8.02245000      -0.73545200      -0.54142400       0.97332500      -0.17290450      -0.23728767       0.05305019
Fe       5.02580000       6.08327000       6.14288000       1.53107200       2.07986600      -0.44355300       0.39510727       0.43438473      -0.02408856
B        6.46739000       9.52531000       1.42776000      -0.83213000      -0.78314200       0.21534400       0.00463093       0.00542663      -0.00389217
Si       3.36056000       5.78054000       9.88043000      -0.35408900       0.86759200       0.70337500      -0.14674422       0.91859354       0.44727723
Si       3.68875000       6.60974000       1.41965000       0.14004300       0.02695200      -1.00259500       0.26217365       0.26009553      -0.22587195
Si       3.95884000       8.08391000      10.56775000       0.21456400       0.93303900      -0.26874100      -0.47774750      -0.69289767      -0.37781578
Si       1.56076000       7.66233000       9.57449000       1.20273800      -0.43060700       0.28036300       0.73747498      -0.17579213       0.30651716
10
Lattice="11.0 0.0 0.0 0.0 11.0 0.0 0.0 0.0 11.0" Properties=species:S:1:pos:R:3:REF_forces:R:3:MACE_forces:R:3 config_type=Fe5B1Si4 REF_energy=-2.43842541 MACE_energy=-21.490282019782704 pbc="T T T"
Fe       8.11536000       3.96737000       6.09845000       2.52379000       3.39438000      -0.10855200       1.53664282       1.57489696      -0.43561710
Fe       4.00538000       4.00868000       8.30741000       1.03860200       0.49749300      -0.86210200       0.00506543      -0.00169401      -0.00491470
Fe       6.21734000       5.49238000       4.54674000      -1.90078500      -0.53233000       2.45773000      -1.21345027      -1.05317299       1.16020167
Fe       6.37295000       3.21617000       6.01003000      -4.31429000      -0.62928100      -0.35144300      -2.12937563      -0.35885213      -0.63370545
Fe       4.28107000       3.14598000       4.09228000       1.68301600       0.43320300       1.57416800       0.40443092       0.12677428       0.30518946
B        8.65122000       7.09833000       7.78974000      -0.81588400      -0.96711600      -2.45875700       0.01441365       0.05670354       0.22649436
Si       8.15838000       5.95236000       4.46257000       2.65955200       1.43037300       0.95638300       1.34135357       0.31571010       0.82010077
Si       7.04021000       6.67768000       6.73922000       0.09201500      -1.71899800      -1.45860000       0.11212442      -0.54584723      -1.02156120
Si       9.92269000       6.79012000       6.33039000      -1.33422700      -1.06385500      -1.26044000      -0.33858306      -0.18575526      -0.40272852
Si       6.58826000       7.17809000       3.12641000       0.36821200      -0.84387000       1.51161300       0.26737817       0.07123675      -0.01345928
10
Lattice="6.0 0.0 0.0 0.0 6.0 0.0 0.0 0.0 6.0" Properties=species:S:1:pos:R:3:REF_forces:R:3:MACE_forces:R:3 config_type=Fe5B1Si4 REF_energy=-53.79328822 MACE_energy=-23.403063669943577 pbc="T T T"
Fe       0.50996000       2.31585000       5.10298000      -1.26599000      -0.50951400      -1.36914100      -0.42979928      -0.41806124      -0.34670948
Fe       4.41281000       4.39623000       3.51801000       2.05066400       2.95138500      -2.14682400       1.04848008       1.43337052      -1.96210072
Fe       1.31233000       5.37312000       2.96679000      -9.66985400       0.21848200       6.64889800      -1.67316524       0.18636949       1.49353489
Fe       5.30196000       5.42046000       5.41384000       1.20364700       0.82237100      -1.12375000       0.42923779       0.40260242      -0.01709130
Fe       2.97556000       4.92730000       5.11455000      -0.79718400       0.13310700       0.96147400      -0.54336084      -0.14846674       0.65074406
B        5.46078000       0.52907000       3.64926000      -0.06089300       0.25590500       0.66478200       0.10317095      -0.33186932       0.03032920
Si       2.81628000       5.37752000       2.00180000       6.85751800      -0.72904200      -5.53711500       1.43082028      -0.22859838      -0.74067284
Si       3.67557000       2.72706000       4.43876000      -0.82806600      -3.20205400       1.23328500      -0.36329373      -1.03148081       0.28997984
Si       4.50462000       4.23004000       1.13387000       0.98654700      -1.71437000      -0.38631400      -0.25775301      -0.17603023       0.03033748
Si       3.47649000       1.50306000       2.12993000       1.52361000       1.77373100       1.05470500       0.25566301       0.31216428       0.57164886
10
Lattice="12.0 0.0 0.0 0.0 12.0 0.0 0.0 0.0 12.0" Properties=species:S:1:pos:R:3:REF_forces:R:3:MACE_forces:R:3 config_type=Fe5B1Si4 REF_energy=-45.66921287 MACE_energy=-21.83299680607874 pbc="T T T"
Fe       4.03767000       2.41086000       6.51410000       1.86803300       0.00585300       0.51063200       1.38800735       0.06827021       0.11564816
Fe       4.79727000      11.75927000       9.09533000       0.54049700       0.45513700      -1.32376800      -0.56266602      -0.24924919       1.03795810
Fe       5.80034000       0.20229000       7.24671000      -0.98588000       0.20802500       0.94137200       0.37651147       0.48203314      -1.11476723