1
Lattice="18.0 0.0 0.0 0.0 18.0 0.0 0.0 0.0 18.0" Properties=species:S:1:pos:R:3:REF_forces:R:3:MACE_forces:R:3 config_type=IsolatedAtom REF_energy=-3.283081 MACE_energy=-3.283081 pbc="T T T"
Fe       0.00000000       0.00000000       0.00000000       0.00000000       0.00000000       0.00000000      -0.00000000      -0.00000000      -0.00000000
1
Lattice="18.0 0.0 0.0 0.0 18.0 0.0 0.0 0.0 18.0" Properties=species:S:1:pos:R:3:REF_forces:R:3:MACE_forces:R:3 config_type=IsolatedAtom REF_energy=-0.81049333 MACE_energy=-0.81049333 pbc="T T T"
Si       0.00000000       0.00000000       0.00000000       0.00000000       0.00000000       0.00000000      -0.00000000      -0.00000000      -0.00000000
1
Lattice="18.0 0.0 0.0 0.0 18.0 0.0 0.0 0.0 18.0" Properties=species:S:1:pos:R:3:REF_forces:R:3:MACE_forces:R:3 config_type=IsolatedAtom REF_energy=-0.27559471 MACE_energy=-0.27559471 pbc="T T T"
B        0.00000000       0.00000000       0.00000000       0.00000000       0.00000000       0.00000000      -0.00000000      -0.00000000      -0.00000000
10
Lattice="9.0 0.0 0.0 0.0 9.0 0.0 0.0 0.0 9.0" Properties=species:S:1:pos:R:3:REF_forces:R:3:MACE_forces:R:3 config_type=Fe5B1Si4 REF_energy=-44.58554767 MACE_energy=-40.21350352267043 pbc="T T T"
Fe       3.50176000       8.99673000       3.09396000       0.95435000      -0.45803800       0.21474200       1.48646470      -0.02286823       0.52250768
Fe       6.43801000       1.81225000       6.74888000       1.10970900      -0.66476800      -1.17007400       0.98086194      -1.07010547      -1.90980668
Fe       2.41193000       0.16613000       4.88253000       0.30913200      -0.89996000       0.17011800       0.82850872      -1.04939478       0.00497198
Fe       8.52164000       3.22369000       0.34244000      -0.58790500      -0.47306700      -0.37861700      -0.14666100      -0.09833891      -0.18206421
Fe       5.66627000       2.92739000       3.87411000       4.77509600       2.80733600       2.40000400       2.64077636       2.41951800       1.95721595
B        5.18442000       1.13758000       3.40139000      -0.73957100       0.38065100       0.44676100      -1.85798214       0.09091368       0.31278252
Si       7.10242000       1.59600000       3.97694000       2.28029300      -3.67324000       1.18634800       2.15962949      -3.09644417       1.58073075
Si       7.70822000       8.86280000       6.25904000      -0.73207200       1.84563600      -0.48266000      -1.01943411       1.82052930      -0.32779328
Si       3.91832000       3.09724000       3.40175000      -6.85054500      -1.08983400      -1.75602400      -4.29434563      -1.68557377      -1.33775532
Si       3.63788000       6.78794000       4.49538000      -0.51848800       2.22528500      -0.63059800      -0.77781832       2.69176436      -0.62078938
10
Lattice="9.0 0.0 0.0 0.0 9.0 0.0 0.0 0.0 9.0" Properties=species:S:1:pos:R:3:REF_forces:R:3:MACE_forces:R:3 config_type=Fe5B1Si4 REF_energy=-48.18464377 MACE_energy=-44.6425811640608 pbc="T T T"
Fe       7.72908000       2.13801000       3.67226000      -0.72140700       1.38590200       0.18439100      -0.38858351       0.85075927      -0.15309771
Fe       2.56544000       0.37534000       3.55582000       0.62580800       1.02854400      -0.21951900       1.46871869       1.39173395      -0.10298693
Fe       5.84797000       2.87648000       5.04299000      -0.51992300      -1.03088200      -1.60504700      -1.01712259      -1.48374496      -0.55600901
Fe       2.00259000       1.62931000       5.21757000       0.16709900       0.68697000      -1.46342200       0.16866468       0.70659704      -1.69389184
Fe       3.04146000       3.03902000       3.03634000       2.84541400      -0.11631900       1.57660000       2.75507587      -0.26019679       1.62857932
B        4.26036000       4.67435000       3.72342000       0.68065500      -0.16735200      -1.56590600       1.18724940      -0.31883008      -1.93524917
Si       6.34493000       4.18783000       3.43892000      -0.40775000      -0.06673100      -0.63978400      -0.99302292       0.78239432      -1.13768980
Si       0.98363000       2.81182000       2.85911000      -2.44913300      -1.45501500       1.18349900      -2.09481652      -1.62327013       1.49550966
Si       4.97672000       0.35177000       3.88032000      -0.44220000       1.58116100       0.17191700      -1.24958386       2.12668141       0.15526148
Si       4.49316000       6.21641000       2.06194000       0.22143900      -1.84627800       2.37727300       0.16342075      -2.17212404       2.29957400
10
Lattice="11.0 0.0 0.0 0.0 11.0 0.0 0.0 0.0 11.0" Properties=species:S:1:pos:R:3:REF_forces:R:3:MACE_forces:R:3 config_type=Fe5B1Si4 REF_energy=-11.58855075 MACE_energy=-32.65077754196385 pbc="T T T"
Fe       8.76471000       0.00946000       6.88513000      -0.22819700       0.12237200      -0.55543600      -0.00000000      -0.00000000      -0.00000000
Fe       2.63377000       1.33277000       3.45207000      -0.77576300      -0.08136400      -0.00027500      -0.94713986      -0.27469901      -0.52844531
Fe       9.34605000       7.55219000       3.04608000      -1.57311900      -1.03473800      -0.15487700      -1.25072699      -0.50609871       0.01198599
Fe       6.36389000       7.12183000       3.09324000       1.09683100       0.04242100      -0.12816300       1.50924067       0.21777279      -0.02386784
Fe       1.35866000       0.14865000       4.85122000       1.24564900       1.43265900      -2.24078300      -0.24161505       0.67565602      -1.39400969
B        0.74424000       4.87887000       2.93866000      -1.13359500      -0.78566000      -1.94809000      -0.59775242      -0.87267771      -2.35122984
Si       0.41110000       1.07145000       2.73658000       1.34178700       0.50456200      -0.25058800       1.23422575       0.62733333      -0.42689803
Si       0.39736000       3.73439000       0.50956000      -1.07905800      -1.52336200       2.18566600      -0.58556150      -0.92691437       3.07845691
Si       9.29283000       2.08457000       0.89045000       2.55214100       0.43757800       0.40081500       2.35418963       0.67928408       0.54558019
Si       2.63700000       1.37373000       1.21644000      -1.44667700       0.88553200       2.69173100      -1.47486024       0.38034358       1.08842762
10
Lattice="11.0 0.0 0.0 0.0 11.0 0.0 0.0 0.0 11.0" Properties=species:S:1:pos:R:3:REF_forces:R:3:MACE_forces:R:3 config_type=Fe5B1Si4 REF_energy=-38.14997444 MACE_energy=-38.728233260817355 pbc="T T T"
Fe       0.55560000       8.19331000       7.06229000       0.60700700      -1.87987400       0.40247700       0.17637525      -1.58413545       0.54831608
Fe       0.49601000       2.54487000       7.78872000      -1.62914400       1.44061600       0.72816300      -1.78761098       1.48937651       0.66919139
Fe      10.07332000       3.88379000       9.42053000       1.49055100       0.96476400      -0.05327700       1.18993572       1.37549248       0.95292542
Fe       4.45932000       9.07691000       6.11289000       0.24660800      -0.52821700      -0.02378300       0.72373030      -0.84551302       0.03019982
Fe       9.54221000       0.53076000       0.28158000      -0.51209300       1.49842300      -0.39218500      -0.65803534       1.41817278      -0.26907842
B       10.69505000       5.70310000       8.40523000       0.71876200      -1.05034900      -0.26069900       1.07138023      -1.78058231      -0.91081352
Si       9.01619000       3.31434000       7.76349000       0.22101700      -0.39376100      -0.82483600       0.45127585      -0.14440612      -0.67452079
Si       1.50005000       6.10934000       7.36041000      -1.47354600       0.22179200       0.82993100      -2.06401415       0.41698929       0.83811678
Si       8.29851000       3.23195000      10.75936000       1.25238600      -0.70606300      -0.69191000       1.73349008      -1.08433799      -1.19813222
Si       3.13187000      10.62875000       6.05729000      -0.92154800       0.43266900       0.28612000      -0.83652696       0.73894383       0.01379546
10
Lattice="11.0 0.0 0.0 0.0 11.0 0.0 0.0 0.0 11.0" Properties=species:S:1:pos:R:3:REF_forces:R:3:MACE_forces:R:3 config_type=Fe5B1Si4 REF_energy=-39.54850766 MACE_energy=-39.93371901243337 pbc="T T T"
Fe       7.32260000       2.25273000       9.60151000      -0.81068000       1.95759200       1.52424100      -0.63583746       1.50295767       1.41904724
Fe       5.30456000       3.18059000       0.62935000       3.59407800       0.60301100       0.45004200       3.28123130       0.67539008       0.54130391
Fe       5.70290000       5.32015000      10.23784000      -0.55638700      -0.41691100      -0.58631200      -0.87187665      -0.86653916      -0.03362054
Fe       7.71673000       4.32859000       0.10409000      -1.51783000      -0.48364700      -0.94636500      -1.75326270      -0.87812364      -0.90658848
Fe       5.73415000       7.17747000       8.80515000      -0.19559000      -2.26799700       1.43769300      -0.33649035      -1.09701508       0.72661243
B        3.53335000       2.44513000       3.14396000       1.80602500       1.42469000       1.46529900       2.12507460       1.70517135       0.59063070
Si       3.05847000       4.99331000       9.56994000       1.58460600       0.22347600       0.29443400       1.78173604      -0.21222772       0.81413860
Si       4.66874000       2.05360000       5.35076000      -1.23296500       0.33348000      -2.53096100      -1.38923579       0.48393017      -2.69424322
Si       3.35109000       3.37679000       0.23198000      -2.51854700       0.79060000      -0.76406600      -2.19479825       1.13207675       0.07199063
Si       4.02675000       4.41289000       2.41329000      -0.15270900      -2.16429400      -0.34400600      -0.00654074      -2.44562042      -0.52927126
10
Lattice="11.0 0.0 0.0 0.0 11.0 0.0 0.0 0.0 11.0" Properties=species:S:1:pos:R:3:REF_forces:R:3:MACE_forces:R:3 config_type=Fe5B1Si4 REF_energy=-30.22050192 MACE_energy=-39.46577404877705 pbc="T T T"
Fe       7.51027000      10.11418000       2.18625000      -1.69790900       1.72973200      -1.19644900      -0.81711869       2.50514945      -0.43287774
Fe       6.52329000       1.24583000       0.98294000       2.87583100      -1.88416600       0.59355300       2.04976491      -0.46831816       1.48451775
Fe       8.50320000       0.98219000       3.23617000       1.14940800      -1.93965800      -1.01181700       0.31725632      -2.73188217      -2.51707109
Fe       8.81725000       8.60479000       1.96311000       1.70133000      -1.33465300       0.85149000       1.14462305      -1.19101023      -0.25279798
Fe       9.16079000       2.26416000       1.64872000      -0.92180800       1.06168500      -1.01542500      -0.94676306       1.16030788      -0.84325755
B        8.94441000       4.16897000      10.47399000      -1.12511400       0.54375800       0.63670800      -0.34903728       0.25989648       1.23009614
Si      10.42398000       4.23416000       1.05026000      -1.52480000      -0.05410100      -1.01659500      -2.29129089      -0.95161942      -1.53050467
Si       7.56198000       2.31002000       4.34386000      -1.29363800       1.80115300       0.97958300      -0.94573083       1.75443954       0.65545801
Si       8.52672000       8.61906000      10.86161000      -0.94443500       0.65405000      -0.31886100      -0.32304247       0.48907594       0.79124654
Si       6.81456000       4.96874000       9.06450000       1.78113500      -0.57779900       1.49781200       2.16133894      -0.82603931       1.41519058
10
Lattice="11.0 0.0 0.0 0.0 11.0 0.0 0.0 0.0 11.0" Properties=species:S:1:pos:R:3:REF_forces:R:3:MACE_forces:R:3 config_type=Fe5B1Si4 REF_energy=-36.59236839 MACE_energy=-41.53487631965159 pbc="T T T"
Fe       3.58274000      10.79851000      10.73667000       0.11897900       0.22630100      -0.04976800      -0.00000000      -0.00000000      -0.00000000
Fe       1.22875000       2.49300000       7.21708000       2.26097500      -1.53625800       1.07649700       2.66489013      -1.22488908       1.47512346
Fe       0.83190000       3.93076000       3.48688000       1.35086000      -1.69250200       0.45489600       1.21097108      -1.36927788       0.36983805
Fe       9.39560000       2.93064000       6.23859000      -2.27414300      -0.91782300      -0.86979000      -3.10031987      -0.33420378      -1.65158422
Fe       1.68648000       4.78764000       5.33563000      -2.42207400      -1.78775100      -0.34755700      -1.71819121      -1.60307745       0.45289458
B        0.09146000       3.23421000       6.27209000       0.33374200       3.18943500      -3.08739300      -0.25703421       2.82103433      -4.44626962
Si      10.14804000       1.29848000       4.70398000      -0.27194000       2.69997500       0.88966000       0.44297628       2.77960399       1.40946734
Si       7.91960000       4.68330000       6.38399000       1.00571800      -0.89791700      -1.90531900       1.31068410      -1.02140826      -1.90985716
Si       7.87407000       3.80560000       3.83659000       1.69436900       0.65761100       2.09344900       1.79202295       0.49236440       2.31400024
Si      10.18862000       4.97429000       4.13294000      -1.79648600       0.05892800       1.74532400      -2.34599926      -0.54014627       1.98638733
10
Lattice="11.0 0.0 0.0 0.0 11.0 0.0 0.0 0.0 11.0" Properties=species:S:1:pos:R:3:REF_forces:R:3:MACE_forces:R:3 config_type=Fe5B1Si4 REF_energy=-37.97135349 MACE_energy=-37.455870542588215 pbc="T T T"
Fe       9.03194000       7.52207000       3.76953000      -0.41692800       1.06213800       1.36215600      -0.03106541       1.49737324       1.21370000
Fe      10.13763000      10.16701000       4.97367000      -1.48414600      -0.40832500      -0.11078200      -1.36530704      -1.09168940      -0.32697030
Fe       4.72985000       7.86062000       7.54580000      -0.46341600      -0.84233600       0.25668000      -0.67512155      -1.36476031      -0.37895532
Fe       8.27206000       8.93115000       5.41966000       2.10203900       0.88604100      -1.49179500       1.32308204       0.89442642      -1.50645245
Fe       4.77388000       2.87329000       5.35297000      -0.27504900      -0.53922100      -0.84728100      -0.50593690      -0.44854788      -0.96543476
B        4.61354000       3.86066000       6.74103000      -0.14362800      -0.14915200      -1.57005500      -0.68899789       1.60642902       0.80255236
Si       1.64433000       3.13639000       3.91354000       3.75707800      -0.87803400      -0.36408100       2.97912836      -0.70289406      -0.82191578
Si       3.74801000       5.66030000       6.94882000       0.45210300       0.36957600       0.68487900       1.28903773       0.25521111       0.26716114
Si       8.69515000       0.60160000       4.24738000      -0.18983800      -0.10747800       0.51028900       0.11066201      -1.24824603       0.62841326
Si      10.87890000       3.62141000       4.73344000      -3.33821400       0.60679200       1.56999000      -2.43548134       0.60269789       1.08790185
10
Lattice="11.0 0.0 0.0 0.0 11.0 0.0 0.0 0.0 11.0" Properties=species:S:1:pos:R:3:REF_forces:R:3:MACE_forces:R:3 config_type=Fe5B1Si4 REF_energy=-19.85588119 MACE_energy=-31.97033981625537 pbc="T T T"
Fe       0.38446000       1.64586000       0.19247000      -0.31544900       0.99906300      -1.16531000      -0.30362309       0.09702954      -0.71338638
Fe       4.73202000       7.12132000       7.31276000       0.31929800      -0.23556100       1.39875500       0.19209524       0.20127863       1.35678992
Fe       0.36789000       2.73674000       6.71847000       0.18431700      -0.99436400      -3.07194200      -0.34659286      -0.95062969      -2.63014883
Fe      10.07665000       2.07009000       8.11408000      -1.05625300       0.13475800      -0.04421700      -0.92503276      -1.05655072       0.71036641
Fe       0.10300000      10.83360000       4.98934000      -0.79988200       1.03958000       0.82376600      -1.18936375       1.92736058       0.61418080
B        9.83138000       1.34479000       5.59342000       2.73003300      -1.60069300       1.71860100       2.31274992       0.10120706       1.93164280
Si       8.95511000       2.30296000       4.33786000      -0.13907800       0.36771900       0.11506400       0.45186253      -0.11841677       0.08734519
Si       3.99539000      10.22212000       8.61506000      -0.05248500      -0.48071600       0.18941400       0.19222363      -0.80945512      -0.34034162
Si       2.69021000       5.15166000      10.73011000       1.27722300       0.17680000       0.10453800       1.76135524       0.19630690      -0.40117554
Si       5.75937000       5.49395000      10.03068000      -2.14772600       0.59341400      -0.06866800      -2.14567411       0.41186959      -0.61527277
10
Lattice="9.0 0.0 0.0 0.0 9.0 0.0 0.0 0.0 9.0" Properties=species:S:1:pos:R:3:REF_forces:R:3:MACE_forces:R:3 config_type=Fe5B1Si4 REF_energy=-45.52219027 MACE_energy=-45.38170599611648 pbc="T T T"
Fe       5.95652000       4.23215000       1.06155000      -0.98767900      -0.50029400      -0.25142400      -1.04756264      -0.69590532      -0.69676783
Fe       5.13270000       1.30654000       4.87525000      -1.02972800       1.07694500      -1.04271400      -1.22085690       1.69708810      -1.30328567
Fe       0.86010000       2.84042000       4.86982000       1.78090900      -0.14036100      -0.68290200       1.14092064       0.05423511      -0.32516767
Fe       4.80846000       2.20734000       0.33653000      -0.70934400       1.79820400       0.47599400      -0.82652495       1.48032689       0.64401661
Fe       4.84818000       3.73073000       2.87016000      -1.11599800      -1.47444400      -2.61602900      -0.93376673      -0.94212320      -3.49888862
B        3.56051000       3.01373000       4.13091000      -3.27582500      -2.90917300      -1.74282900      -2.43212604      -2.88872992      -0.91053818
Si       3.41138000       1.28778000       2.26512000       0.95707700       2.37405100       0.97860500       1.36760339       2.64806754       0.56394560
Si       5.16668000       2.63723000       6.68984000       0.07413900      -1.78642600       3.36318600      -0.23456376      -1.72681350       3.26930999
Si       3.08125000       3.86721000       0.97989000       1.93930500      -1.04831500       0.87154200       2.60449131      -1.51267138       1.42036873
Si       4.99984000       3.77363000       4.95280000       2.36714300       2.60981200       0.64657100       1.58238569       1.88652567       0.83700704
10
Lattice="11.0 0.0 0.0 0.0 11.0 0.0 0.0 0.0 11.0" Properties=species:S:1:pos:R:3:REF_forces:R:3:MACE_forces:R:3 config_type=Fe5B1Si4 REF_energy=-40.7418507 MACE_energy=-36.08583739247365 pbc="T T T"
Fe       5.85212000       3.50546000       5.08734000       2.15677100      -0.79414500      -0.20894700       1.34652690      -0.41292325       0.21808982
Fe       4.00684000       5.71103000       1.22208000       0.17321900       0.19260900       1.30384500       0.17753315       0.40299061       1.63898244
Fe       8.00148000       8.34774000      10.98030000      -0.08363800      -0.04550400       0.02901100      -0.00000000      -0.00000000      -0.00000000
Fe       7.35073000       2.40140000       6.64128000       0.77906300       1.12479900      -0.71056100       1.09520114       1.51400750      -1.25565027
Fe      10.15241000       4.26124000       5.16236000      -1.21868700      -1.07976300       1.03424500      -1.64653527      -1.05448433       1.20808435
B        7.50939000       3.71850000       4.30627000       0.81775400       0.01191000       1.18846500       0.63082003      -0.32613361       1.74441980
Si       0.88259000       3.63568000       4.13155000       0.18457900       0.08807600       0.63549900       0.96091882       0.13588457       0.21591966
Si       4.29968000       6.34926000       4.01086000      -0.04470200      -1.65685100      -0.27530200      -0.20521027      -2.14826995      -0.63106268
Si       3.89182000       4.30839000       5.36988000      -1.81091900       1.59107900      -0.75492800      -0.99165822       1.44112593      -1.14822824
Si       9.83466000       2.97427000       7.53103000      -0.95344000       0.56779200      -2.24132700      -1.36759629       0.44780252      -1.99055489
10
Lattice="9.0 0.0 0.0 0.0 9.0 0.0 0.0 0.0 9.0" Properties=species:S:1:pos:R:3:REF_forces:R:3:MACE_forces:R:3 config_type=Fe5B1Si4 REF_energy=-42.65563223 MACE_energy=-44.212087679550365 pbc="T T T"
Fe       5.47398000       6.28103000       3.23251000       0.28355300       0.05833700       0.13117200      -0.35651548      -0.47165175      -0.38958118
Fe       3.48819000       2.94480000       4.89866000      -0.87509200      -0.04370600       2.15230300      -1.02041325       0.43982791       0.52234254
Fe       8.33854000       1.27421000       2.74786000      -0.46364400       1.92715600       1.33564000      -0.40332971       1.83965102       1.78960769
Fe       6.99962000       2.76087000       4.14267000      -0.44746500       1.63766400       1.88762100      -0.38493064       0.93793496       1.84431851
Fe       1.77962000       3.26723000       3.35280000      -0.52218800      -0.67489800       0.43259300       0.07246116      -0.61060910       0.83241901
B        4.62666000       4.86714000       2.55939000       0.26614600      -1.03752000       0.98811100      -0.40693069      -2.02353807       1.47748406
Si       4.18354000       2.39378000       2.99079000       0.43795500       1.50930000      -2.71878500      -0.10509860       1.87136841      -1.57894016
Si       8.55432000       3.88894000       3.61944000       3.24804800       2.01892900      -1.57919700       2.92812967       0.54438589      -1.12136427
Si       5.93563000       1.17498000       3.69373000      -1.91994400      -5.30800600      -1.48876300      -0.74004153      -2.62849902      -1.05683076
Si       0.45419000       2.68863000       5.46192000      -0.00736800      -0.08725600      -1.14069400       0.41666906       0.10112976      -2.31945545
10
Lattice="11.0 0.0 0.0 0.0 11.0 0.0 0.0 0.0 11.0" Properties=species:S:1:pos:R:3:REF_forces:R:3:MACE_forces:R:3 config_type=Fe5B1Si4 REF_energy=-34.53347477 MACE_energy=-34.76977449288491 pbc="T T T"
Fe      10.38446000       0.44273000       4.17388000      -0.78237800      -1.86098300       1.10984900      -0.57303735      -2.00856846       1.54115042
Fe       5.58579000       5.13476000       2.28318000      -1.35183300       0.99168200      -0.54319900      -1.21046681      -0.17014277      -0.41918262
Fe      10.26893000       9.29847000       6.65501000       0.41344200       0.04548900      -2.04786900       0.54010330      -0.01965151      -3.07590082
Fe       8.86095000       8.11141000       4.18070000       1.29133000       1.24914000       1.04926000       1.75306019       1.09800428       1.34230831
Fe       7.69214000       0.53975000       5.12514000       1.95509500      -0.60911200      -1.00813900       1.39859796      -0.16909010      -0.45645039
B        2.74748000       4.83778000       0.91630000       1.39196400      -0.12393600      -0.20196400       1.51900350      -0.06797250      -0.02967705
Si       6.81162000       1.90994000       1.53462000      -0.52184800       1.18261600      -0.41056100      -0.52693189       1.81371797      -0.56360268
Si       6.12115000       4.10888000       0.52255000       1.58173000      -1.75162600       1.46051100       1.32953654      -2.12378296       0.47177121
Si       0.91081000       9.09353000       4.86613000      -2.08485700       0.69467200       0.51855400      -3.11907692       1.09985457       0.64745174
Si       4.16380000       4.58033000      10.67633000      -1.89264600       0.18205800       0.07355800      -1.11078853       0.54763149       0.54213190
10
Lattice="11.0 0.0 0.0 0.0 11.0 0.0 0.0 0.0 11.0" Properties=species:S:1:pos:R:3:REF_forces:R:3:MACE_forces:R:3 config_type=Fe5B1Si4 REF_energy=-31.88716106 MACE_energy=-36.230175341718194 pbc="T T T"
Fe       1.14116000       9.49468000      10.94139000       1.03161900      -0.44995100      -0.39877100       1.03285205      -1.35844857      -0.85245736
Fe       7.21367000       6.98307000       4.70883000      -2.94301400      -1.46688800       0.65014200      -1.96178398      -0.18538641      -0.00152760
Fe       4.99485000       7.56523000       3.28858000       0.74465000      -0.23543700      -0.70888800       0.73384618      -0.51272772      -0.36067696
Fe       5.11075000       7.78078000       8.02245000      -0.73545200      -0.54142400       0.97332500      -1.07980122      -1.28361319       0.74084068
Fe       5.02580000       6.08327000       6.14288000       1.53107200       2.07986600      -0.44355300       1.03216185       1.74015919      -0.61426278
B        6.46739000       9.52531000       1.42776000      -0.83213000      -0.78314200       0.21534400      -1.19043307      -1.14500912       0.34744653
Si       3.36056000       5.78054000       9.88043000      -0.35408900       0.86759200       0.70337500      -0.04307498       2.58512974       0.66394866
Si       3.68875000       6.60974000       1.41965000       0.14004300       0.02695200      -1.00259500       0.74796212       0.57590188      -0.42496040
Si       3.95884000       8.08391000      10.56775000       0.21456400       0.93303900      -0.26874100      -0.92045520      -0.58805992      -0.85698621
Si       1.56076000       7.66233000       9.57449000       1.20273800      -0.43060700       0.28036300       1.64872625       0.17205412       1.35863545
10
Lattice="11.0 0.0 0.0 0.0 11.0 0.0 0.0 0.0 11.0" Properties=species:S:1:pos:R:3:REF_forces:R:3:MACE_forces:R:3 config_type=Fe5B1Si4 REF_energy=-2.43842541 MACE_energy=-40.92840090953797 pbc="T T T"
Fe       8.11536000       3.96737000       6.09845000       2.52379000       3.39438000      -0.10855200       2.88312113       3.79751248      -0.56813210
Fe       4.00538000       4.00868000       8.30741000       1.03860200       0.49749300      -0.86210200       0.49798146      -0.16651706      -0.47828498
Fe       6.21734000       5.49238000       4.54674000      -1.90078500      -0.53233000       2.45773000      -2.91278234      -1.82332253       1.41394648
Fe       6.37295000       3.21617000       6.01003000      -4.31429000      -0.62928100      -0.35144300      -4.59765346      -0.45540065      -0.84431952
Fe       4.28107000       3.14598000       4.09228000       1.68301600       0.43320300       1.57416800       1.56385702       0.81700426       0.93168389
B        8.65122000       7.09833000       7.78974000      -0.81588400      -0.96711600      -2.45875700      -0.00528101      -0.31559601      -0.50310033
Si       8.15838000       5.95236000       4.46257000       2.65955200       1.43037300       0.95638300       2.93366115       0.51327515       1.35674416
Si       7.04021000       6.67768000       6.73922000       0.09201500      -1.71899800      -1.45860000       0.51079784      -1.31885838      -1.40651641
Si       9.92269000       6.79012000       6.33039000      -1.33422700      -1.06385500      -1.26044000      -1.15994820      -0.62789627      -0.31302486
Si       6.58826000       7.17809000       3.12641000       0.36821200      -0.84387000       1.51161300       0.28624641      -0.42020098       0.41100367
10
Lattice="6.0 0.0 0.0 0.0 6.0 0.0 0.0 0.0 6.0" Properties=species:S:1:pos:R:3:REF_forces:R:3:MACE_forces:R:3 config_type=Fe5B1Si4 REF_energy=-53.79328822 MACE_energy=-49.27851183707012 pbc="T T T"
Fe       0.50996000       2.31585000       5.10298000      -1.26599000      -0.50951400      -1.36914100      -1.65706521      -0.52465997      -1.09638125
Fe       4.41281000       4.39623000       3.51801000       2.05066400       2.95138500      -2.14682400       2.00466021       2.92487197      -2.47471027
Fe       1.31233000       5.37312000       2.96679000      -9.66985400       0.21848200       6.64889800      -4.20356113       0.46823588       3.48954966
Fe       5.30196000       5.42046000       5.41384000       1.20364700       0.82237100      -1.12375000       0.76403695       0.57662315      -1.40372954
Fe       2.97556000       4.92730000       5.11455000      -0.79718400       0.13310700       0.96147400      -0.29721465      -0.17912276       0.45045374
B        5.46078000       0.52907000       3.64926000      -0.06089300       0.25590500       0.66478200      -0.62640373      -0.10581888       0.35519294
Si       2.81628000       5.37752000       2.00180000       6.85751800      -0.72904200      -5.53711500       2.89230022      -0.10432619      -1.69056285
Si       3.67557000       2.72706000       4.43876000      -0.82806600      -3.20205400       1.23328500      -0.45249522      -2.76744322       1.10817554
Si       4.50462000       4.23004000       1.13387000       0.98654700      -1.71437000      -0.38631400       0.55179209      -0.74482325      -0.31701914
Si       3.47649000       1.50306000       2.12993000       1.52361000       1.77373100       1.05470500       1.02395047       0.45646328       1.57903117
10
Lattice="12.0 0.0 0.0 0.0 12.0 0.0 0.0 0.0 12.0" Properties=species:S:1:pos:R:3:REF_forces:R:3:MACE_forces:R:3 config_type=Fe5B1Si4 REF_energy=-45.66921287 MACE_energy=-41.78495262243956 pbc="T T T"
Fe       4.03767000       2.41086000       6.51410000       1.86803300       0.00585300       0.51063200       1.55150206       0.10706163       0.20654255
Fe       4.79727000      11.75927000       9.09533000       0.54049700       0.45513700      -1.32376800       0.23020284       0.09920617      -0.42095113
Fe       5.80034000       0.20229000       7.24671000      -0.98588000       0.20802500       0.94137200      -0.92192770       0.74063315       0.15191861