1
Lattice="18.0 0.0 0.0 0.0 18.0 0.0 0.0 0.0 18.0" Properties=species:S:1:pos:R:3:REF_forces:R:3:MACE_forces:R:3 config_type=IsolatedAtom REF_energy=-3.283081 MACE_energy=-3.283081 pbc="T T T"
Fe       0.00000000       0.00000000       0.00000000       0.00000000       0.00000000       0.00000000      -0.00000000      -0.00000000      -0.00000000
1
Lattice="18.0 0.0 0.0 0.0 18.0 0.0 0.0 0.0 18.0" Properties=species:S:1:pos:R:3:REF_forces:R:3:MACE_forces:R:3 config_type=IsolatedAtom REF_energy=-0.81049333 MACE_energy=-0.81049333 pbc="T T T"
Si       0.00000000       0.00000000       0.00000000       0.00000000       0.00000000       0.00000000      -0.00000000      -0.00000000      -0.00000000
1
Lattice="18.0 0.0 0.0 0.0 18.0 0.0 0.0 0.0 18.0" Properties=species:S:1:pos:R:3:REF_forces:R:3:MACE_forces:R:3 config_type=IsolatedAtom REF_energy=-0.27559471 MACE_energy=-0.27559471 pbc="T T T"
B        0.00000000       0.00000000       0.00000000       0.00000000       0.00000000       0.00000000      -0.00000000      -0.00000000      -0.00000000
10
Lattice="9.0 0.0 0.0 0.0 9.0 0.0 0.0 0.0 9.0" Properties=species:S:1:pos:R:3:REF_forces:R:3:MACE_forces:R:3 config_type=Fe5B1Si4 REF_energy=-44.58554767 MACE_energy=-23.193346370450932 pbc="T T T"
Fe       3.50176000       8.99673000       3.09396000       0.95435000      -0.45803800       0.21474200       1.33122915      -0.43778584      -0.92932689
Fe       6.43801000       1.81225000       6.74888000       1.10970900      -0.66476800      -1.17007400       0.34054758      -0.39921794      -0.76140330
Fe       2.41193000       0.16613000       4.88253000       0.30913200      -0.89996000       0.17011800      -0.52722214      -0.51487252       1.34242635
Fe       8.52164000       3.22369000       0.34244000      -0.58790500      -0.47306700      -0.37861700       0.00126020       0.00085183       0.00156851
Fe       5.66627000       2.92739000       3.87411000       4.77509600       2.80733600       2.40000400       0.99514443       1.58178344       0.81666071
B        5.18442000       1.13758000       3.40139000      -0.73957100       0.38065100       0.44676100      -0.58965198      -0.09079940      -0.07760789
Si       7.10242000       1.59600000       3.97694000       2.28029300      -3.67324000       1.18634800       1.49912961      -1.76885769       0.79105733
Si       7.70822000       8.86280000       6.25904000      -0.73207200       1.84563600      -0.48266000      -0.33677920       0.59999968      -0.13034057
Si       3.91832000       3.09724000       3.40175000      -6.85054500      -1.08983400      -1.75602400      -2.32661832      -0.34938481      -0.70983231
Si       3.63788000       6.78794000       4.49538000      -0.51848800       2.22528500      -0.63059800      -0.38703933       1.37828324      -0.34320195
10
Lattice="9.0 0.0 0.0 0.0 9.0 0.0 0.0 0.0 9.0" Properties=species:S:1:pos:R:3:REF_forces:R:3:MACE_forces:R:3 config_type=Fe5B1Si4 REF_energy=-48.18464377 MACE_energy=-24.770442497362104 pbc="T T T"
Fe       7.72908000       2.13801000       3.67226000      -0.72140700       1.38590200       0.18439100      -0.09456813       0.83990246      -0.09234074
Fe       2.56544000       0.37534000       3.55582000       0.62580800       1.02854400      -0.21951900       0.90931039       0.17700464      -1.03974316
Fe       5.84797000       2.87648000       5.04299000      -0.51992300      -1.03088200      -1.60504700      -0.32293301      -0.83496460       0.22344997
Fe       2.00259000       1.62931000       5.21757000       0.16709900       0.68697000      -1.46342200      -0.23501419       1.24291631      -0.02388991
Fe       3.04146000       3.03902000       3.03634000       2.84541400      -0.11631900       1.57660000       1.57440160      -0.29588463       1.01340811
B        4.26036000       4.67435000       3.72342000       0.68065500      -0.16735200      -1.56590600       0.25787225      -0.53704677      -0.46725512
Si       6.34493000       4.18783000       3.43892000      -0.40775000      -0.06673100      -0.63978400       0.14339010       0.24616489      -0.73673752
Si       0.98363000       2.81182000       2.85911000      -2.44913300      -1.45501500       1.18349900      -1.77791682      -0.81182465       0.60962807
Si       4.97672000       0.35177000       3.88032000      -0.44220000       1.58116100       0.17191700      -0.49183995       0.42329400       0.06178542
Si       4.49316000       6.21641000       2.06194000       0.22143900      -1.84627800       2.37727300       0.03729777      -0.44956165       0.45169489
10
Lattice="11.0 0.0 0.0 0.0 11.0 0.0 0.0 0.0 11.0" Properties=species:S:1:pos:R:3:REF_forces:R:3:MACE_forces:R:3 config_type=Fe5B1Si4 REF_energy=-11.58855075 MACE_energy=-22.284723722501386 pbc="T T T"
Fe       8.76471000       0.00946000       6.88513000      -0.22819700       0.12237200      -0.55543600      -0.00000000      -0.00000000      -0.00000000
Fe       2.63377000       1.33277000       3.45207000      -0.77576300      -0.08136400      -0.00027500       0.09617165       0.29439035      -0.18044619
Fe       9.34605000       7.55219000       3.04608000      -1.57311900      -1.03473800      -0.15487700      -0.37114913      -0.06489546       0.00560756
Fe       6.36389000       7.12183000       3.09324000       1.09683100       0.04242100      -0.12816300       0.38015123       0.05486011      -0.00601173
Fe       1.35866000       0.14865000       4.85122000       1.24564900       1.43265900      -2.24078300      -0.63902664      -0.05432953      -0.24199450
B        0.74424000       4.87887000       2.93866000      -1.13359500      -0.78566000      -1.94809000      -0.05523437      -0.14372386      -0.32229535
Si       0.41110000       1.07145000       2.73658000       1.34178700       0.50456200      -0.25058800       0.86208786      -0.08507096       0.23141443
Si       0.39736000       3.73439000       0.50956000      -1.07905800      -1.52336200       2.18566600      -0.45154060      -0.29830139       0.43748023
Si       9.29283000       2.08457000       0.89045000       2.55214100       0.43757800       0.40081500       0.68527083       0.33136766       0.04762171
Si       2.63700000       1.37373000       1.21644000      -1.44667700       0.88553200       2.69173100      -0.50673083      -0.03429692       0.02862383
10
Lattice="11.0 0.0 0.0 0.0 11.0 0.0 0.0 0.0 11.0" Properties=species:S:1:pos:R:3:REF_forces:R:3:MACE_forces:R:3 config_type=Fe5B1Si4 REF_energy=-38.14997444 MACE_energy=-23.259438028987834 pbc="T T T"
Fe       0.55560000       8.19331000       7.06229000       0.60700700      -1.87987400       0.40247700       0.02835577      -0.29278431       0.09470515
Fe       0.49601000       2.54487000       7.78872000      -1.62914400       1.44061600       0.72816300      -1.16938137       0.59790760       0.39370539
Fe      10.07332000       3.88379000       9.42053000       1.49055100       0.96476400      -0.05327700       1.29065467       0.70345965       0.70600923
Fe       4.45932000       9.07691000       6.11289000       0.24660800      -0.52821700      -0.02378300       1.18206409      -1.38187876       0.04951064
Fe       9.54221000       0.53076000       0.28158000      -0.51209300       1.49842300      -0.39218500      -0.11659611       0.25229162      -0.04852325
B       10.69505000       5.70310000       8.40523000       0.71876200      -1.05034900      -0.26069900       0.04758643      -0.57891440       0.04198870
Si       9.01619000       3.31434000       7.76349000       0.22101700      -0.39376100      -0.82483600       0.03314060      -0.56601122      -1.16553519
Si       1.50005000       6.10934000       7.36041000      -1.47354600       0.22179200       0.82993100      -0.38888295       0.08818622       0.15995788
Si       8.29851000       3.23195000      10.75936000       1.25238600      -0.70606300      -0.69191000       0.27744302      -0.20194209      -0.18321290
Si       3.13187000      10.62875000       6.05729000      -0.92154800       0.43266900       0.28612000      -1.18438417       1.37968570      -0.04860564
10
Lattice="11.0 0.0 0.0 0.0 11.0 0.0 0.0 0.0 11.0" Properties=species:S:1:pos:R:3:REF_forces:R:3:MACE_forces:R:3 config_type=Fe5B1Si4 REF_energy=-39.54850766 MACE_energy=-23.93128329301164 pbc="T T T"
Fe       7.32260000       2.25273000       9.60151000      -0.81068000       1.95759200       1.52424100      -0.13361679       0.73171513       0.69507065
Fe       5.30456000       3.18059000       0.62935000       3.59407800       0.60301100       0.45004200       2.38822126       0.84152804       0.24152752
Fe       5.70290000       5.32015000      10.23784000      -0.55638700      -0.41691100      -0.58631200      -0.56485403      -0.70960288       0.26968016
Fe       7.71673000       4.32859000       0.10409000      -1.51783000      -0.48364700      -0.94636500      -0.92397306      -0.79690029      -0.40369872
Fe       5.73415000       7.17747000       8.80515000      -0.19559000      -2.26799700       1.43769300      -0.01395330      -0.04103279       0.02711966
B        3.53335000       2.44513000       3.14396000       1.80602500       1.42469000       1.46529900       0.32389969       0.37148899       0.09847142
Si       3.05847000       4.99331000       9.56994000       1.58460600       0.22347600       0.29443400       0.65366196      -0.08991107       0.32894159
Si       4.66874000       2.05360000       5.35076000      -1.23296500       0.33348000      -2.53096100      -0.20889983       0.07289348      -0.40660448
Si       3.35109000       3.37679000       0.23198000      -2.51854700       0.79060000      -0.76406600      -1.63397309       0.64701431       0.09557972
Si       4.02675000       4.41289000       2.41329000      -0.15270900      -2.16429400      -0.34400600       0.11348720      -1.02719293      -0.94608752
10
Lattice="11.0 0.0 0.0 0.0 11.0 0.0 0.0 0.0 11.0" Properties=species:S:1:pos:R:3:REF_forces:R:3:MACE_forces:R:3 config_type=Fe5B1Si4 REF_energy=-30.22050192 MACE_energy=-22.996481819801474 pbc="T T T"
Fe       7.51027000      10.11418000       2.18625000      -1.69790900       1.72973200      -1.19644900      -1.62807078       2.22499744      -0.32908533
Fe       6.52329000       1.24583000       0.98294000       2.87583100      -1.88416600       0.59355300       0.99020458      -0.46635380       0.73750439
Fe       8.50320000       0.98219000       3.23617000       1.14940800      -1.93965800      -1.01181700       0.37613364      -2.22805591      -0.58341647
Fe       8.81725000       8.60479000       1.96311000       1.70133000      -1.33465300       0.85149000       1.64708069      -1.73545690       0.85946678
Fe       9.16079000       2.26416000       1.64872000      -0.92180800       1.06168500      -1.01542500       0.13327774       1.19008423      -1.20180828
B        8.94441000       4.16897000      10.47399000      -1.12511400       0.54375800       0.63670800       0.00641253       0.00346376       0.26408784
Si      10.42398000       4.23416000       1.05026000      -1.52480000      -0.05410100      -1.01659500      -0.61759059      -0.50114364      -0.17713029
Si       7.56198000       2.31002000       4.34386000      -1.29363800       1.80115300       0.97958300      -0.94758702       1.44801997       1.06789183
Si       8.52672000       8.61906000      10.86161000      -0.94443500       0.65405000      -0.31886100      -0.27301321       0.18214307      -0.84459393
Si       6.81456000       4.96874000       9.06450000       1.78113500      -0.57779900       1.49781200       0.31315242      -0.11769822       0.20708345
10
Lattice="11.0 0.0 0.0 0.0 11.0 0.0 0.0 0.0 11.0" Properties=species:S:1:pos:R:3:REF_forces:R:3:MACE_forces:R:3 config_type=Fe5B1Si4 REF_energy=-36.59236839 MACE_energy=-23.47664567640106 pbc="T T T"
Fe       3.58274000      10.79851000      10.73667000       0.11897900       0.22630100      -0.04976800      -0.00000000      -0.00000000      -0.00000000
Fe       1.22875000       2.49300000       7.21708000       2.26097500      -1.53625800       1.07649700       2.13467133      -1.23642043       1.62989830
Fe       0.83190000       3.93076000       3.48688000       1.35086000      -1.69250200       0.45489600       0.94494193      -1.22309410      -1.02469929
Fe       9.39560000       2.93064000       6.23859000      -2.27414300      -0.91782300      -0.86979000      -2.05211506      -0.43823543      -0.59932651
Fe       1.68648000       4.78764000       5.33563000      -2.42207400      -1.78775100      -0.34755700      -0.79036390      -0.42077111       0.92898852
B        0.09146000       3.23421000       6.27209000       0.33374200       3.18943500      -3.08739300       0.24448318       2.37737159      -2.81012881
Si      10.14804000       1.29848000       4.70398000      -0.27194000       2.69997500       0.88966000       0.05292516       0.61803005       0.47167846
Si       7.91960000       4.68330000       6.38399000       1.00571800      -0.89791700      -1.90531900       0.07176940      -0.24310491      -0.65651663
Si       7.87407000       3.80560000       3.83659000       1.69436900       0.65761100       2.09344900       0.81346125       0.41912808       0.94846802
Si      10.18862000       4.97429000       4.13294000      -1.79648600       0.05892800       1.74532400      -1.41977329       0.14709626       1.11163794
10
Lattice="11.0 0.0 0.0 0.0 11.0 0.0 0.0 0.0 11.0" Properties=species:S:1:pos:R:3:REF_forces:R:3:MACE_forces:R:3 config_type=Fe5B1Si4 REF_energy=-37.97135349 MACE_energy=-22.826298535772136 pbc="T T T"
Fe       9.03194000       7.52207000       3.76953000      -0.41692800       1.06213800       1.36215600       0.14788606       0.08980415      -0.04160952
Fe      10.13763000      10.16701000       4.97367000      -1.48414600      -0.40832500      -0.11078200       0.71452952      -0.58048370       0.12113477
Fe       4.72985000       7.86062000       7.54580000      -0.46341600      -0.84233600       0.25668000      -0.32582626      -0.73021879      -0.19811644
Fe       8.27206000       8.93115000       5.41966000       2.10203900       0.88604100      -1.49179500      -0.26691226       0.25643478       0.05986550
Fe       4.77388000       2.87329000       5.35297000      -0.27504900      -0.53922100      -0.84728100       0.19415174      -1.44577738      -2.08899156
B        4.61354000       3.86066000       6.74103000      -0.14362800      -0.14915200      -1.57005500      -0.28214136       1.57648465       2.11022171
Si       1.64433000       3.13639000       3.91354000       3.75707800      -0.87803400      -0.36408100       1.42862457      -0.38647095      -0.63428393
Si       3.74801000       5.66030000       6.94882000       0.45210300       0.36957600       0.68487900       0.38221127       0.60217599       0.16236311
Si       8.69515000       0.60160000       4.24738000      -0.18983800      -0.10747800       0.51028900      -0.59344422       0.23709279      -0.13893235
Si      10.87890000       3.62141000       4.73344000      -3.33821400       0.60679200       1.56999000      -1.39907907       0.38095845       0.64834871
10
Lattice="11.0 0.0 0.0 0.0 11.0 0.0 0.0 0.0 11.0" Properties=species:S:1:pos:R:3:REF_forces:R:3:MACE_forces:R:3 config_type=Fe5B1Si4 REF_energy=-19.85588119 MACE_energy=-21.399091396184282 pbc="T T T"
Fe       0.38446000       1.64586000       0.19247000      -0.31544900       0.99906300      -1.16531000      -0.01960066       0.00635391      -0.04613468
Fe       4.73202000       7.12132000       7.31276000       0.31929800      -0.23556100       1.39875500       0.01380350      -0.00005049       0.07319271
Fe       0.36789000       2.73674000       6.71847000       0.18431700      -0.99436400      -3.07194200       1.06480355       0.32082682      -2.18366283
Fe      10.07665000       2.07009000       8.11408000      -1.05625300       0.13475800      -0.04421700      -1.64592942      -0.97946105       1.31987805
Fe       0.10300000      10.83360000       4.98934000      -0.79988200       1.03958000       0.82376600      -0.38419332       0.49677128       0.17243094
B        9.83138000       1.34479000       5.59342000       2.73003300      -1.60069300       1.71860100       1.48487345      -0.42682922       1.51700449
Si       8.95511000       2.30296000       4.33786000      -0.13907800       0.36771900       0.11506400      -0.49995361       0.58233826      -0.77951599
Si       3.99539000      10.22212000       8.61506000      -0.05248500      -0.48071600       0.18941400       0.00830996      -0.03497950      -0.01468997
Si       2.69021000       5.15166000      10.73011000       1.27722300       0.17680000       0.10453800       0.08946279       0.00997762      -0.02038803
Si       5.75937000       5.49395000      10.03068000      -2.14772600       0.59341400      -0.06866800      -0.11157626       0.02505237      -0.03811471
10
Lattice="9.0 0.0 0.0 0.0 9.0 0.0 0.0 0.0 9.0" Properties=species:S:1:pos:R:3:REF_forces:R:3:MACE_forces:R:3 config_type=Fe5B1Si4 REF_energy=-45.52219027 MACE_energy=-25.377213794348222 pbc="T T T"
Fe       5.95652000       4.23215000       1.06155000      -0.98767900      -0.50029400      -0.25142400      -0.05612714      -0.10366555      -0.94408250
Fe       5.13270000       1.30654000       4.87525000      -1.02972800       1.07694500      -1.04271400      -0.64920013       1.22787020      -0.64490753
Fe       0.86010000       2.84042000       4.86982000       1.78090900      -0.14036100      -0.68290200       0.27467735       0.01757903      -0.07520460
Fe       4.80846000       2.20734000       0.33653000      -0.70934400       1.79820400       0.47599400      -0.66091432       0.77708697       0.58364805
Fe       4.84818000       3.73073000       2.87016000      -1.11599800      -1.47444400      -2.61602900      -1.20899359      -0.87143826      -1.39923778
B        3.56051000       3.01373000       4.13091000      -3.27582500      -2.90917300      -1.74282900      -0.69393658      -1.40502985      -0.32875033
Si       3.41138000       1.28778000       2.26512000       0.95707700       2.37405100       0.97860500       0.71982889       1.25398545      -0.17073663
Si       5.16668000       2.63723000       6.68984000       0.07413900      -1.78642600       3.36318600      -0.08258762      -0.52955844       1.53272494
Si       3.08125000       3.86721000       0.97989000       1.93930500      -1.04831500       0.87154200       1.43787398      -0.75904009       0.54413560
Si       4.99984000       3.77363000       4.95280000       2.36714300       2.60981200       0.64657100       0.91937916       0.39221055       0.90241079
10
Lattice="11.0 0.0 0.0 0.0 11.0 0.0 0.0 0.0 11.0" Properties=species:S:1:pos:R:3:REF_forces:R:3:MACE_forces:R:3 config_type=Fe5B1Si4 REF_energy=-40.7418507 MACE_energy=-22.820126930000715 pbc="T T T"
Fe       5.85212000       3.50546000       5.08734000       2.15677100      -0.79414500      -0.20894700       0.35143710      -0.59928526       0.44080503
Fe       4.00684000       5.71103000       1.22208000       0.17321900       0.19260900       1.30384500       0.04988389       0.10870609       0.47510012
Fe       8.00148000       8.34774000      10.98030000      -0.08363800      -0.04550400       0.02901100      -0.00000000      -0.00000000      -0.00000000
Fe       7.35073000       2.40140000       6.64128000       0.77906300       1.12479900      -0.71056100       0.51314214       0.51553672      -0.31204435
Fe      10.15241000       4.26124000       5.16236000      -1.21868700      -1.07976300       1.03424500      -1.33734353      -0.02208818       1.18457902
B        7.50939000       3.71850000       4.30627000       0.81775400       0.01191000       1.18846500       0.95896723      -0.04888511       0.05752258
Si       0.88259000       3.63568000       4.13155000       0.18457900       0.08807600       0.63549900       1.06258402      -0.36507283      -0.60027994
Si       4.29968000       6.34926000       4.01086000      -0.04470200      -1.65685100      -0.27530200      -0.13907585      -0.67751656      -0.10574459
Si       3.89182000       4.30839000       5.36988000      -1.81091900       1.59107900      -0.75492800      -0.83501382       0.90198626      -0.23981605
Si       9.83466000       2.97427000       7.53103000      -0.95344000       0.56779200      -2.24132700      -0.62458118       0.18661886      -0.90012181
10
Lattice="9.0 0.0 0.0 0.0 9.0 0.0 0.0 0.0 9.0" Properties=species:S:1:pos:R:3:REF_forces:R:3:MACE_forces:R:3 config_type=Fe5B1Si4 REF_energy=-42.65563223 MACE_energy=-24.828227698744243 pbc="T T T"
Fe       5.47398000       6.28103000       3.23251000       0.28355300       0.05833700       0.13117200       0.75302100       1.25678360       0.59825965
Fe       3.48819000       2.94480000       4.89866000      -0.87509200      -0.04370600       2.15230300      -0.43079674       0.25324156       1.15624744
Fe       8.33854000       1.27421000       2.74786000      -0.46364400       1.92715600       1.33564000      -0.75419272       0.88948781       0.79740084
Fe       6.99962000       2.76087000       4.14267000      -0.44746500       1.63766400       1.88762100       0.13336241       0.36405874       0.95673322
Fe       1.77962000       3.26723000       3.35280000      -0.52218800      -0.67489800       0.43259300      -0.05791150      -0.42839935       0.41222515
B        4.62666000       4.86714000       2.55939000       0.26614600      -1.03752000       0.98811100      -0.84200129      -1.71612143      -0.49336557
Si       4.18354000       2.39378000       2.99079000       0.43795500       1.50930000      -2.71878500      -0.10342337       0.45644540      -1.04790480
Si       8.55432000       3.88894000       3.61944000       3.24804800       2.01892900      -1.57919700       1.73769778       0.30361725      -0.44124017
Si       5.93563000       1.17498000       3.69373000      -1.91994400      -5.30800600      -1.48876300      -0.34496022      -1.70840757      -0.69331658
Si       0.45419000       2.68863000       5.46192000      -0.00736800      -0.08725600      -1.14069400      -0.09079537       0.32929398      -1.24503918
10
Lattice="11.0 0.0 0.0 0.0 11.0 0.0 0.0 0.0 11.0" Properties=species:S:1:pos:R:3:REF_forces:R:3:MACE_forces:R:3 config_type=Fe5B1Si4 REF_energy=-34.53347477 MACE_energy=-22.268354250365896 pbc="T T T"
Fe      10.38446000       0.44273000       4.17388000      -0.78237800      -1.86098300       1.10984900      -0.35620467      -0.42173735       0.40031632
Fe       5.58579000       5.13476000       2.28318000      -1.35183300       0.99168200      -0.54319900      -0.47752708       0.52772730       0.76872580
Fe      10.26893000       9.29847000       6.65501000       0.41344200       0.04548900      -2.04786900       0.36494609      -0.10697112      -0.83330887
Fe       8.86095000       8.11141000       4.18070000       1.29133000       1.24914000       1.04926000       0.21508727       0.13094223       0.24586122
Fe       7.69214000       0.53975000       5.12514000       1.95509500      -0.60911200      -1.00813900       0.59841452      -0.01673932      -0.21325190
B        2.74748000       4.83778000       0.91630000       1.39196400      -0.12393600      -0.20196400      -0.29729788       0.06607951       0.31981938
Si       6.81162000       1.90994000       1.53462000      -0.52184800       1.18261600      -0.41056100      -0.18858893       0.59678936      -0.26268142
Si       6.12115000       4.10888000       0.52255000       1.58173000      -1.75162600       1.46051100       0.92795502      -1.28346731      -0.57389626
Si       0.91081000       9.09353000       4.86613000      -2.08485700       0.69467200       0.51855400      -0.82224160       0.41450305       0.40038978
Si       4.16380000       4.58033000      10.67633000      -1.89264600       0.18205800       0.07355800       0.03545727       0.09287364      -0.25197407
10
Lattice="11.0 0.0 0.0 0.0 11.0 0.0 0.0 0.0 11.0" Properties=species:S:1:pos:R:3:REF_forces:R:3:MACE_forces:R:3 config_type=Fe5B1Si4 REF_energy=-31.88716106 MACE_energy=-23.293144236026905 pbc="T T T"
Fe       1.14116000       9.49468000      10.94139000       1.03161900      -0.44995100      -0.39877100       0.17408165      -0.26374805      -0.16583130
Fe       7.21367000       6.98307000       4.70883000      -2.94301400      -1.46688800       0.65014200      -1.24618901      -0.06921055      -0.03533436
Fe       4.99485000       7.56523000       3.28858000       0.74465000      -0.23543700      -0.70888800       0.30105671      -0.47937252      -0.06543052
Fe       5.11075000       7.78078000       8.02245000      -0.73545200      -0.54142400       0.97332500      -0.31195630      -0.49242246       0.02968162
Fe       5.02580000       6.08327000       6.14288000       1.53107200       2.07986600      -0.44355300       0.61137708       0.79718122       0.02437391
B        6.46739000       9.52531000       1.42776000      -0.83213000      -0.78314200       0.21534400      -0.04026598      -0.05223766       0.04728504
Si       3.36056000       5.78054000       9.88043000      -0.35408900       0.86759200       0.70337500      -0.18616389       1.29923735       0.60966881
Si       3.68875000       6.60974000       1.41965000       0.14004300       0.02695200      -1.00259500       0.36052908       0.33251754      -0.30862257
Si       3.95884000       8.08391000      10.56775000       0.21456400       0.93303900      -0.26874100      -0.67702056      -0.88936185      -0.61343855
Si       1.56076000       7.66233000       9.57449000       1.20273800      -0.43060700       0.28036300       1.01455122      -0.18258302       0.47764791
10
Lattice="11.0 0.0 0.0 0.0 11.0 0.0 0.0 0.0 11.0" Properties=species:S:1:pos:R:3:REF_forces:R:3:MACE_forces:R:3 config_type=Fe5B1Si4 REF_energy=-2.43842541 MACE_energy=-23.305273513992958 pbc="T T T"
Fe       8.11536000       3.96737000       6.09845000       2.52379000       3.39438000      -0.10855200       2.24126909       2.38673355      -0.58085052
Fe       4.00538000       4.00868000       8.30741000       1.03860200       0.49749300      -0.86210200       0.02913199      -0.00974724      -0.02826971
Fe       6.21734000       5.49238000       4.54674000      -1.90078500      -0.53233000       2.45773000      -1.45403285      -1.41238472       1.51232828
Fe       6.37295000       3.21617000       6.01003000      -4.31429000      -0.62928100      -0.35144300      -3.19669162      -0.53874959      -0.93311971
Fe       4.28107000       3.14598000       4.09228000       1.68301600       0.43320300       1.57416800       0.66400114       0.23442202       0.48579288
B        8.65122000       7.09833000       7.78974000      -0.81588400      -0.96711600      -2.45875700      -0.00392023       0.02951647       0.14229835
Si       8.15838000       5.95236000       4.46257000       2.65955200       1.43037300       0.95638300       1.67529312       0.37907823       1.19037802
Si       7.04021000       6.67768000       6.73922000       0.09201500      -1.71899800      -1.45860000       0.39751310      -0.81815472      -1.35907135
Si       9.92269000       6.79012000       6.33039000      -1.33422700      -1.06385500      -1.26044000      -0.66974975      -0.26905840      -0.47171047
Si       6.58826000       7.17809000       3.12641000       0.36821200      -0.84387000       1.51161300       0.31718601       0.01834442       0.04222422
10
Lattice="6.0 0.0 0.0 0.0 6.0 0.0 0.0 0.0 6.0" Properties=species:S:1:pos:R:3:REF_forces:R:3:MACE_forces:R:3 config_type=Fe5B1Si4 REF_energy=-53.79328822 MACE_energy=-26.253329219814916 pbc="T T T"
Fe       0.50996000       2.31585000       5.10298000      -1.26599000      -0.50951400      -1.36914100      -0.71595081      -0.51503451      -0.48610214
Fe       4.41281000       4.39623000       3.51801000       2.05066400       2.95138500      -2.14682400       1.24554707       1.90022774      -1.88699715
Fe       1.31233000       5.37312000       2.96679000      -9.66985400       0.21848200       6.64889800      -2.57028410       0.32118196       2.27693643
Fe       5.30196000       5.42046000       5.41384000       1.20364700       0.82237100      -1.12375000       0.28650396       0.54357573      -0.69247679
Fe       2.97556000       4.92730000       5.11455000      -0.79718400       0.13310700       0.96147400      -0.28821374      -0.18303503       0.56721208
B        5.46078000       0.52907000       3.64926000      -0.06089300       0.25590500       0.66478200       0.04791811      -0.62069261       0.32559647
Si       2.81628000       5.37752000       2.00180000       6.85751800      -0.72904200      -5.53711500       2.11440174      -0.29263907      -1.20382276
Si       3.67557000       2.72706000       4.43876000      -0.82806600      -3.20205400       1.23328500      -0.24574836      -1.28301379       0.32009320
Si       4.50462000       4.23004000       1.13387000       0.98654700      -1.71437000      -0.38631400      -0.28547010      -0.27399353      -0.09690026
Si       3.47649000       1.50306000       2.12993000       1.52361000       1.77373100       1.05470500       0.41129621       0.40342312       0.87646092
10
Lattice="12.0 0.0 0.0 0.0 12.0 0.0 0.0 0.0 12.0" Properties=species:S:1:pos:R:3:REF_forces:R:3:MACE_forces:R:3 config_type=Fe5B1Si4 REF_energy=-45.66921287 MACE_energy=-23.85525482517132 pbc="T T T"
Fe       4.03767000       2.41086000       6.51410000       1.86803300       0.00585300       0.51063200       1.61605698       0.12754306       0.14346594
Fe       4.79727000      11.75927000       9.09533000       0.54049700       0.45513700      -1.32376800      -0.61249731      -0.27294666       1.13204589
Fe       5.80034000       0.20229000       7.24671000      -0.98588000       0.20802500       0.94137200       0.32339621       0.63369229      -1.25037326