54
Lattice="8.579999685 0.0 0.0 0.0 8.579999685 0.0 0.0 0.0 8.5799996" Properties=species:S:1:pos:R:3:REF_forces:R:3:MACE_forces:R:3 config_type=Fe34B10Si10 REF_energy=-352.89092233 MACE_energy=-353.17846806859296 pbc="T T T"
Fe       1.46495000       0.71583000       1.12880000       3.73230100      -3.41607500      -3.76209700       3.60341246      -3.42622026      -3.46056949
Fe       0.56244000       2.07917000       1.96452000      -3.31290700       4.06628900       2.54508600      -3.34115384       4.05086715       2.33274312
Fe       0.86636000       2.12990000       5.00906000     -10.85567700      -2.87102900      12.20968700     -10.88510898      -2.93747070      12.19867321
Fe       0.24697000       2.61233000       7.83061000      -0.37811800      -2.03816900      -0.08744800      -0.37207178      -2.03023432       0.07040133
Fe       0.35437000       4.66395000       8.16447000      -1.30300600       1.62250000       0.84662400      -1.35640016       1.77564846       0.76060229
Fe       0.83543000       8.00840000       3.01492000       5.54921000      -2.55787300       0.52513800       5.63021004      -2.62363239       0.47746383
Fe       2.03952000       7.84431000       6.63062000      -4.28706100       1.82495200      -1.68802900      -4.10029512       2.01496888      -1.75513945
Fe       3.34318000       0.11090000       2.96052000      -0.46571400      -0.35056300       0.37864800      -0.49682834      -0.16702369       0.45700011
Fe       3.26317000       2.11539000       1.48699000      -3.47884800      -0.03222100       0.61542300      -3.31524846      -0.24266089       0.26150307
Fe       4.14313000       2.75755000       3.31065000      -0.71378000      -2.73118300       1.93004800      -0.67645934      -2.44909228       1.87777245
Fe       2.55051000       2.67374000       7.19710000      -2.55215900      -0.93589000       1.77261600      -2.21404102      -1.02190388       1.68090348
Fe       3.61327000       2.86500000       5.46497000       1.55763200       0.20514300      -0.56676300       1.45026674       0.27991706      -0.28467488
Fe       2.62400000       4.72550000       1.39174000      -1.08585200      -1.19598700       0.59645400      -1.32697141      -0.99752203       0.66986052
Fe       2.20317000       5.21693000       3.87451000      -3.92870900      -4.38103900      -4.92199500      -3.95734621      -4.36987920      -5.13422589
Fe       3.93082000       4.37819000       8.08226000       1.07616800       0.44807800      -0.99700400       0.92010838       0.21578496      -0.99577200
Fe       2.44961000       7.01753000       1.08943000       0.32119000      -1.55635000       3.27006500       0.43815698      -1.57425113       3.35273485
Fe       3.02500000       6.15780000       5.08193000      -1.08486800       1.64126100       3.95415400      -0.23614460       1.85324752       4.17703028
Fe       5.77712000       0.44616000       0.16142000      -2.43333700       0.07175000       4.13474700      -2.40391953       0.40825573       4.17640553
Fe       5.66964000       0.14892000       2.95259000      -3.67617900       1.90971100       0.12919700      -3.67612067       1.64509080       0.33044029
Fe       5.39484000       2.66317000       1.55162000       4.08183700      -3.39937100       3.88213200       3.99704087      -3.75717048       4.17291586
Fe       5.91309000       3.40423000       8.31953000       8.90196200       5.48305700      -2.72562400       8.75574184       5.37531972      -2.76579855
Fe       4.96126000       4.63305000       3.41410000      -3.60269200      -2.00302700       2.25051900      -3.87049783      -2.38464728       2.42384393
Fe       5.11347000       6.81217000       1.78872000      -0.87770500       0.06714300      -1.61156800      -0.74385450       0.14598968      -1.68834793
Fe       5.00950000       6.45991000       8.24507000      -2.30619500      -0.19808200      -1.52355700      -2.20683404      -0.01266853      -1.80299270
Fe       4.64263000       7.71190000       5.75084000       2.50156800       4.23919200      -1.55456800       2.55387328       4.28976814      -1.62592684
Fe       7.32285000       0.33022000       5.03535000      -0.99210900      -0.59745100       4.73628300      -0.93159937      -0.34280401       4.68539716
Fe       6.75330000       1.32958000       7.05071000       0.53851300       2.01290400       0.36400700       0.49108150       1.85595807       0.33007777
Fe       6.82686000       2.53028000       3.66692000      -0.08907100      -0.12987400      -0.26318300       0.02188437      -0.18152435      -0.18960524
Fe       6.83617000       5.56618000       0.59386000       1.74434500       1.47371700      -3.32847200       1.76161048       1.72014068      -3.47395755
Fe       8.27091000       4.29855000       2.87718000       3.23308900       0.33980500       1.37352500       3.07610934       0.16971953       1.32701928
Fe       6.58774000       4.90718000       4.97515000      -1.87594500       0.58060600      -0.05143700      -2.03993734       0.60269194      -0.46966588
Fe       6.86773000       6.79187000       3.27473000       1.52763600      -2.76254700       0.67579100       1.46362988      -2.42652528       0.35903359
Fe       8.09083000       8.29691000       0.84396000      -4.18921500      -1.95965200       9.56442300      -4.14088859      -2.19767412       9.64903545
Fe       6.62133000       7.67903000       7.47205000      -3.65417600       1.51975600      -3.32990400      -4.04165819       1.28707612      -3.47353658
B        3.45077000       6.81738000       6.75435000       2.04131500      -2.79808300       3.80923700       1.96185657      -2.92134745       3.90089156
B        4.67436000       1.10514000       4.73414000       0.75036200       0.95391600      -0.52852700       0.79259185       0.98538818      -0.41703416
B        6.18153000       2.20088000       5.47737000      -4.49435700      -3.20609500      -2.27763700      -4.63638149      -3.15724770      -2.50732407
B        5.08133000       4.10197000       6.35983000       0.35152900       0.25548900      -0.65354500       0.47866774       0.23025652      -0.55511199
B        4.48663000       4.29393000       1.40792000      -0.27448100       1.04603100       0.21283300      -0.24019595       1.24842246       0.21677173
B        4.96286000       5.88068000       6.14703000       0.60492000      -1.85032800       0.29314600       0.43755268      -1.81803524       0.12629207
B        8.17242000       5.65216000       5.55863000       1.00443800       0.65677900      -0.69824300       1.07490544       0.62779155      -0.24014702
B        7.98743000       6.92663000       6.60530000       5.86774900       2.58695800      -4.05103700       5.77399832       2.32233755      -3.43573159
B        7.10769000       5.72812000       6.91109000      -2.33709700      -3.34606800       1.34633400      -2.13353962      -3.44096103       1.47787954
B        7.81665000       6.81498000       8.33858000       5.04350100      -2.41043400       0.97359300       4.96821052      -2.56870899       0.44316604
Si       0.06983000       0.14925000       7.74742000       4.12649000       2.60901100      -8.87608100       3.94471831       2.52947813      -8.80766778
Si       1.93337000       2.41223000       3.74634000      10.14534600       2.98113100     -12.18526000      10.18357912       3.02861886     -11.99984135
Si       0.75978000       6.02813000       1.69309000      -4.13401100      -0.74920300       1.02787300      -4.12936784      -0.88538343       0.93792293
Si       2.22023000       5.10313000       7.16329000      -1.58663400       1.19675500      -1.89967800      -1.65434597       1.17243243      -1.84996240
Si       3.27754000       8.17117000       8.35443000       4.04667900       4.58101600      -2.24829100       3.88168083       4.48670398      -2.35089848
Si       4.48145000       2.18337000       8.34202000      -5.72220500      -5.96162700      -4.99603400      -5.45487803      -5.86233648      -5.17734053
Si       6.36439000       4.54151000       2.12641000       2.28764700      -2.33178900       1.39384200       2.59868458      -2.15721716       1.20365197
Si       4.52267000       6.51460000       3.75633000       0.42177200       5.22743800       1.25328700       0.12275565       5.32434194       1.35787155
Si       7.68278000       0.22257000       3.11016000      -0.17295300       4.89916800      -3.86478000      -0.20988745       4.86509617      -3.93985161
Si       7.35363000       3.38410000       6.13231000       4.40786200       1.27045000       2.62604800       4.40964792       1.44283008       2.96581918
54
Lattice="8.579999685 0.0 0.0 0.0 8.579999685 0.0 0.0 0.0 8.5799996" Properties=species:S:1:pos:R:3:REF_forces:R:3:MACE_forces:R:3 config_type=Fe34B10Si10 REF_energy=-354.71875992 MACE_energy=-355.2634671409185 pbc="T T T"
Fe       0.43313000       1.19321000       2.96848000       1.47291300       2.99028000       0.61180900       1.49577270       2.89828885       0.40526176
Fe       0.91365000       1.12516000       8.09995000       2.76260400      -2.00335600       1.20968300       2.39547072      -1.77401660       1.13390469
Fe       1.17142000       2.67870000       5.23446000      -1.90323000       6.04651700       0.58026800      -1.65305327       6.11711161       0.35625387
Fe       0.60772000       3.85484000       0.87278000       2.66909500       4.89444800       4.53699300       2.68624910       5.09178962       4.11266811
Fe       1.41565000       3.44858000       3.01161000      -0.29549500       2.03729500      -0.74017400       0.00089644       1.93637793      -0.71329480
Fe       0.04226000       2.91249000       8.09734000      -3.39897200      -2.84207300      -2.69442200      -2.79404070      -3.00021359      -2.48315234
Fe       1.33282000       7.09057000       5.22634000      -0.45239700      -1.35392500       0.92503500      -0.23109134      -1.44760671       0.93770072
Fe       2.06045000       7.92051000       0.98063000      -3.11321000      -0.30108300      -2.49280600      -3.28339367      -0.43721221      -2.51286520
Fe       2.03627000       8.24295000       3.50701000      -1.42216600       4.38122900       0.88517600      -1.54415129       4.09686430       0.62912683
Fe       0.01253000       8.02686000       7.00667000       2.58679700       0.98610200     -11.80201700       2.48705847       0.86083865     -12.06398583
Fe       3.00353000       0.57289000       6.13981000      -1.03922300       0.18357300       0.93137300      -0.77484987       0.15661678       0.97827315
Fe       3.69949000       2.65196000       7.51811000       2.76433000      -4.34399200      -3.80269000       2.59763359      -4.13881434      -3.71119389
Fe       2.94478000       6.44154000       3.03987000       7.21319500      -3.66655800      -1.17614100       6.99947238      -3.43647767      -0.99546465
Fe       2.94309000       5.75189000       6.64956000      -6.24071800      -0.74678300       3.86021800      -6.43725286      -0.65770370       4.03486077
Fe       3.71160000       8.39321000       1.86324000       2.24845700      -0.43546600       0.28887200       2.41866110      -0.05960457       0.68529229
Fe       4.07810000       8.43915000       4.32840000       2.88035800       1.28304800      -0.49181300       2.85005965       1.29448918      -0.81738630
Fe       5.57499000       0.73262000       6.31633000      -3.12774100      -1.68249800      -0.98058200      -2.76632630      -1.75911513      -0.93405543
Fe       4.70712000       1.94493000       1.65492000      -2.04675700       4.97917500      -3.67899600      -2.09842084       4.73003966      -3.42787477
Fe       4.73401000       4.18392000       1.24748000       0.71501700       1.80608500      -0.06999200       0.70793610       1.96279034      -0.14240802
Fe       4.56687000       4.22266000       4.39618000       0.73801700       3.32591500      -2.10569900       0.48072416       3.18310910      -2.10272300
Fe       4.51224000       4.61167000       7.05684000       2.53211900      -0.41024200       0.53825400       2.94716929      -0.69294916       0.48360859
Fe       6.32808000       6.81945000       4.24288000      -3.20445400      -0.33519400      -1.28892300      -2.79730526      -0.23277125      -1.08467385
Fe       6.22240000       7.17309000       0.16230000      -3.30904600      -2.75215800       1.90373500      -3.45689512      -2.96183465       2.02218609
Fe       4.54224000       7.44382000       7.03838000       0.17895600      -5.02037800      -8.74618400       0.33761701      -5.28256236      -8.86628287
Fe       4.73272000       8.55832000       8.35561000      -0.10588400       8.96287400       6.54083400      -0.38090436       9.29939483       6.17037766
Fe       7.67285000       2.82429000       2.17742000      -2.12886900      -0.76272600      -2.06587500      -2.14695270      -0.80067798      -1.95163440
Fe       6.74071000       1.77406000       4.33655000       0.47479500       0.50025500      -0.42349800       0.06056325       0.40000562      -0.42851217
Fe       7.16362000       1.61896000       6.68131000       5.11373900       1.83737400       0.70818800       4.67293324       1.58201596       0.61831878
Fe       6.73653000       4.13840000       7.84564000       0.19062300       0.32905600       3.59274800       0.17366482       0.46172875       3.58601249
Fe       6.61248000       5.35948000       2.44590000       0.96755600      -0.77403900      -0.47053600       0.86931706      -0.67342558      -0.40825174
Fe       8.39074000       4.95678000       4.82580000       0.50677700       3.21370700       1.22596300       0.53766214       3.16332758       1.09233504
Fe       6.62275000       6.29700000       6.29237000       0.91106900      -0.58785400       1.74696000       0.82992671      -0.49926972       1.60465696
Fe       8.00875000       8.14674000       2.12563000      -1.25903800      -1.94608200      -3.37077000      -0.87531198      -1.85414966      -3.43316579
Fe       7.96861000       8.10559000       4.08816000       1.24434400       0.03207600       4.40361200       0.73217469       0.03045091       4.58511067
B        3.14587000       1.61638000       2.59818000      -3.96044800      -1.57388800      -2.24367700      -3.97985172      -1.46584851      -2.00319492
B        4.07212000       1.93087000       3.78701000       0.55534200       0.12762300      -3.25123200       0.35002547       0.13050673      -3.25978208
B        2.24412000       1.90783000       4.05913000      -1.80380000      -9.70850100      -5.48536600      -1.89483356     -10.09705318      -5.61434549
B        2.90130000       3.06657000       4.45062000       2.48509300       7.60479000      -1.50334300       2.85227762       7.25990871      -1.50515116
B        2.82587000       3.80138000       5.80651000       0.21675600       2.27927400       3.92227300       0.24315398       2.24852849       3.99280804
B        2.60929000       5.04297000       1.66311000       0.12617300      -0.77075900      -0.46531300      -0.00379364      -0.85272012      -0.47108631
B        2.47198000       4.95014000       4.32601000      -0.76752800      -1.31946700       0.35153300      -0.78619840      -1.20548102       0.47082064
B        2.73354000       7.81887000       7.66829000      -1.47869400      -0.15377200       0.00458000      -1.55007637      -0.16458096       0.22980863
B        5.68071000       2.28134000       7.79544000      -0.95924500       0.41857400       1.11780500      -0.97715938       0.40799393       1.09669559
B        7.77536000       3.70665000       3.76574000      -0.44877700      -1.48394500      -0.38974400      -0.52987706      -1.43458704      -0.09694948
Si       0.79518000       0.92195000       5.77957000      -1.66645900      -4.94136200      -1.10925300      -1.63498241      -4.96466922      -0.98301617
Si       0.88055000       4.20706000       6.73551000       1.15626000       3.58432200      -0.32349000       1.09994804       3.64234601      -0.21579094
Si       1.15025000       6.44729000       2.43826000      -7.77651300      -1.83655100      -1.54918700      -7.77421804      -1.73973597      -1.69720598
Si       2.82820000       3.29548000       0.50208000      -4.05499500       1.58525200       5.32597100      -4.04485772       1.35484218       5.24817896
Si       4.14031000       6.38272000       0.30005000      -2.16949800      -2.44928300       2.57761000      -2.34382454      -2.37451637       2.43856922
Si       3.68345000       6.43010000       5.01209000       3.98893100       0.98565200      -2.13453700       3.86256645       1.17001789      -2.19021673
Si       5.73751000       0.59059000       2.53265000       5.08228400      -4.90021500       2.23852200       5.09968548      -4.82996680       2.51315520
Si       4.51163000       2.47994000       5.36819000       2.60737700      -2.86786400       7.12589500       2.81688638      -2.56661725       7.10941483
Si       6.43436000       3.75222000       5.86206000       1.38008400       0.66155200      -3.64612400       1.48806529       0.69664048      -3.72415436
Si       8.06432000       7.52318000       8.55473000       2.36409700      -3.06603600      11.34847700       2.66605108      -2.77184275      11.30241908
18
Lattice="6.5 0.0 0.0 0.0 6.5 0.0 0.0 0.0 6.5" Properties=species:S:1:pos:R:3:REF_forces:R:3:MACE_forces:R:3 config_type=Fe12B3Si3 REF_energy=-113.87843945 MACE_energy=-113.01405201927335 pbc="T T T"
Fe       5.40234000       5.43492000       1.53729000      -1.39532100       2.04028400       0.71142300      -1.02167757       1.80979190       0.69672357
Fe       2.09750000       2.10361000       0.54730000       2.35673700      -0.33103000       1.27254800       2.58043838      -0.15849604       1.43228118
Fe       2.84360000       1.73250000       3.81271000       2.28004000      -1.18251600      -0.27344700       2.27750768      -1.01783340      -0.19228892
Fe       0.77541000       4.93717000       1.04317000       1.56096300      -3.83372900       1.76362000       1.19094156      -3.37250304       1.63851863
Fe       0.07665000       3.70431000       3.74351000      -0.75952900      -0.39175400      -2.23189700      -1.25683135      -0.47533813      -2.24000557
Fe       4.77171000       3.58949000       4.78220000      -1.99219600      -4.62409700       0.48420500      -1.60895156      -4.52720597       0.37920377
Fe       4.12430000       1.49867000       1.46476000       0.29771700      -2.38794700       0.28396300       0.22580021      -2.68164775       0.12335163
Fe       0.95387000       5.17746000       5.28728000      -0.57085000      -0.50160400      -1.80733600      -0.94017488      -0.62685400      -1.38222715
Fe       1.93602000       3.09888000       2.36598000      -0.08855100       0.43128300      -0.27209000      -0.20612882       0.45556510      -0.71405974
Fe       5.69037000       1.28357000       4.20026000      -0.40866000      -0.49067900       0.18976600      -0.87092777      -0.33895664       0.20762450
Fe       1.94321000       2.86141000       5.39871000      -0.55906500       0.73218900      -1.80086600      -0.43173746       0.67596718      -1.96505225
Fe       4.33122000       5.38124000       5.25469000      -0.73272900       4.56545400       1.52017900      -0.52653789       4.37566167       1.59509010
B        0.37598000       1.64060000       1.21420000      -3.21263000       2.85095800       0.76078000      -2.91389190       2.68097780       0.75281241
B        1.88110000       4.04794000       3.96741000       2.48956600       2.45119300      -0.32261600       2.65864430       2.44793797      -0.25231654
B        3.63878000       0.94242000       5.41981000      -0.01444500       0.67937600       0.95779200       0.09575912       0.80443436       1.07202090
Si       1.19380000       0.26963000       0.19686000       0.54051800       0.24528300      -1.93219100       0.61202474       0.06226532      -1.78834496
Si       4.57825000       3.47658000       1.16117000       0.15934200       1.26766700      -0.81102600       0.17325693       1.53791939      -0.83673970
Si       1.09558000       0.76720000       2.75124000       0.04909300      -1.52033200       1.50719200      -0.03751372      -1.65168573       1.47340814
54
Lattice="8.579999685 0.0 0.0 0.0 8.579999685 0.0 0.0 0.0 8.5799996" Properties=species:S:1:pos:R:3:REF_forces:R:3:MACE_forces:R:3 config_type=Fe34B10Si10 REF_energy=-356.0869274 MACE_energy=-356.88300087815907 pbc="T T T"
Fe       0.92877000       1.08311000       2.12831000      -0.53214900      -1.15432400       0.53007800      -0.74165438      -1.17159477       0.39148889
Fe       1.12794000       0.45096000       7.37327000      -2.86345100       2.18226700       1.45805300      -2.80680610       1.96324132       1.41035700
Fe       0.91289000       3.61082000       1.96264000      -1.66570100       0.50807500      -4.76654600      -1.76144180       0.39233171      -4.83005876
Fe       0.97242000       3.25012000       3.83975000      -0.85629000      -1.23507100      -0.91491200      -1.12130272      -1.26951867      -0.12874078
Fe       1.43574000       3.84332000       5.84621000      -1.94378300      -0.72872400       4.94145300      -2.08576208      -0.67027051       4.79117560
Fe       0.45897000       5.99881000       1.32384000       1.86679900       1.45939200      -0.33976700       1.63293368       1.49694196      -0.18302044
Fe       0.05714000       6.25044000       6.01250000       0.66851500      -0.88142700       1.67028200       0.65357788      -0.76399725       1.67423101
Fe       1.87526000       7.05991000       7.27744000      -5.90957000       6.81146600       5.95768600      -5.72115481       7.27484811       6.01066562
Fe       4.21220000       0.80536000       3.81626000       0.44958900      -1.97725700       0.54591300       0.44587627      -1.87219495       0.39305685
Fe       2.64196000       0.75311000       5.88605000       0.80305000      -0.92688600      -1.50973400       0.48776046      -1.02503478      -1.52890846
Fe       2.51735000       4.27963000       7.86001000      -0.17185400       2.88247300       0.00075600      -0.00518168       2.91016807       0.14126861
Fe       2.46175000       4.76211000       4.38544000       2.27245000       6.36429500      -0.60000700       2.20997233       6.38914147      -0.78111760
Fe       3.99132000       4.46692000       6.09268000      -0.21521200      -1.96607600      -0.25853400      -0.17474301      -2.30023996      -0.20174364
Fe       4.03283000       6.20484000       2.50717000       0.32509400      -1.83048700       1.07686200       0.40686950      -1.76576689       1.04547561
Fe       2.62183000       8.12097000       1.25125000      -5.45108600      -1.04608100      -0.88869000      -5.50031734      -1.14914823      -0.64725076
Fe       2.34208000       7.49949000       3.33705000      -1.45221900       0.10179900       1.96325000      -1.28165496       0.17070960       1.64894475
Fe       4.67554000       0.98699000       8.35162000       1.97529500       0.95938300       0.07305200       1.66737363       0.89004310       0.28281648
Fe       4.68615000       2.28426000       1.60336000       6.03713100       4.39249100       1.56082500       6.24564547       4.31315164       1.11990527
Fe       4.95897000       4.28949000       0.91503000       1.24258400       3.77490300      -1.07876200       0.85308496       3.59743487      -1.23144779
Fe       5.62605000       3.84953000       3.25301000      -4.56775200       3.43217100       2.09526400      -4.52629530       3.54477998       1.89732793
Fe       5.63153000       5.70233000       4.67966000       0.04558900       0.36352900      -0.74034800       0.02319909      -0.03845065      -0.58256126
Fe       5.00954000       6.14620000       6.89198000       4.51113600      -2.60361300       1.43664400       4.57381705      -2.35922407       1.44054720
Fe       5.34723000       7.32984000       0.56425000       3.41130600      -7.55812200      -7.44238600       3.55178394      -7.04290639      -7.29654782
Fe       4.57141000       8.20633000       1.67615000      -2.51651100       6.57056000       9.11650700      -2.72496184       6.04130718       8.75586619
Fe       5.67084000       7.83697000       6.02451000      -0.02983000       3.57151200       0.33120700      -0.00998433       3.57598472       0.32636858
Fe       7.65837000       1.05332000       0.64336000       1.95813700       2.93603900      -3.62028800       1.87816185       2.87962648      -3.56869442
Fe       7.23579000       1.49494000       3.62009000       0.88838800      -1.50203300       3.00240400       0.92619767      -1.45832955       3.09359397
Fe       6.96409000       1.59543000       6.70415000       0.40175100      -2.57633900      -0.54943900       0.53192489      -2.53456689      -0.60349975
Fe       6.97946000       3.05325000       2.27831000       3.01329100      -2.85779700      -7.80747400       2.47265923      -2.96350670      -7.29303911
Fe       7.05854000       3.62734000       7.13255000       0.94483300       2.42104600       2.56329500       1.04165704       2.48617119       2.51576442
Fe       7.47490000       4.49325000       0.92243000      -3.13561000       0.06366500       0.11142200      -2.86980853       0.50868634      -0.13881187
Fe       7.76499000       5.40883000       4.05655000       3.42051700      -2.49950500       1.10150300       3.48778505      -2.62545531       1.13754381
Fe       6.91686000       6.16423000       2.38917000      -4.34160700       0.52717700      -3.24358900      -4.32813334       0.54341058      -3.21590796
Fe       7.31773000       7.39473000       4.73130000      -1.41907300       3.06948200       1.38572900      -1.49927011       2.96195070       1.43415935
B        1.63947000       5.44017000       2.85377000      -1.37965300       1.67099600      -0.34434500      -1.49647130       1.77901171      -0.55260289
B        3.47444000       1.29905000       1.69513000      -6.04542900      -7.46227000      -1.52467000      -5.88923101      -7.10264801      -1.03932081
B        2.31673000       1.42955000       3.77944000      -1.85652800      -2.14982900       3.21956500      -1.67801136      -1.97724392       3.41594531
B        3.17088000       0.01260000       8.16689000      -2.14308300      -0.12737100      -3.63430700      -1.99391593       0.10694081      -3.58429334
B        2.48887000       2.23189000       2.44876000      -1.30373000       3.96631200      -0.94871100      -0.89613513       3.81055817      -1.29397574
B        3.55016000       3.21990000       0.17024000       2.13469500      -3.52588700       0.23974700       2.10946026      -3.40159775       0.30802991
B        3.12966000       3.07291000       4.24572000      -6.99085300       0.34377600      -0.16579100      -7.04866337       0.15823271      -0.14826201
B        2.38358000       5.95301000       6.34325000       2.25901800      -8.76611800      -6.31465800       2.15181303      -9.27637806      -6.57070002
B        4.46260000       2.62992000       4.23823000       7.08507900      -1.75449200       0.40993300       7.16756652      -1.90082751       0.44859244
B        7.51183000       3.59374000       3.85724000       1.49621300      -1.20378300       3.39561400       1.55645402      -1.05386236       3.20838483
Si       0.50050000       1.66927000       5.10425000      -1.02554400      -2.67263500       2.61432900      -0.77807154      -2.91940940       2.66507676
Si       0.41923000       4.50138000       8.15701000       0.82744200      -0.47721100      -2.57541600       1.07779393      -0.40736181      -2.89715373
Si       2.90131000       4.25049000       1.93860000       2.71957100       0.04497600      -0.88170100       2.87997659      -0.01005386      -1.08578796
Si       3.74353000       6.85388000       5.19884000      -1.20766000       1.80214700      -2.20114300      -1.05818464       2.07525775      -2.11186947
Si       3.54209000       6.47938000       8.21357000      -0.45014500      -1.75854100       4.24377300      -0.53717993      -2.02566312       4.41578293
Si       4.55252000       1.74669000       6.40118000       0.28733400       0.20348600      -1.69136000       0.21071253       0.11189789      -1.58723457
Si       5.87020000       3.30923000       5.41310000       1.93974000       0.55942400      -1.14043100       1.56911483       0.81451697      -1.08111869
Si       6.68392000       0.09389000       2.07850000      -2.78148600      -1.30329400       2.70552900      -2.41778211      -1.22536861       2.78706479
Si       7.30980000       7.36953000       0.08595000       4.18267400      -0.22507900      -1.67891000       4.11134194      -0.48938742      -1.68280750
Si       8.41387000       7.50606000       2.97540000       5.08859000       1.78741200      -0.88875800       5.02760499       2.00366237      -0.89295696
54
Lattice="8.579999685 0.0 0.0 0.0 8.579999685 0.0 0.0 0.0 8.5799996" Properties=species:S:1:pos:R:3:REF_forces:R:3:MACE_forces:R:3 config_type=Fe34B10Si10 REF_energy=-359.84864784 MACE_energy=-360.08066159994894 pbc="T T T"
Fe       0.39531000       2.37288000       0.87042000       3.27925500       2.43832800      -1.60261100       3.20154234       2.69877708      -1.73870236
Fe       0.75383000       1.65209000       3.11094000       1.30783500      -0.34615400      -0.09267000       1.28885850      -0.88727811       0.11966332
Fe       1.33201000       3.79282000       7.26231000      -2.40668100      -1.18131200       0.32245500      -2.61034047      -1.12222917       0.29963514
Fe       0.64436000       4.41396000       2.97573000       2.42004200      -2.26182600       0.38963900       2.48763772      -2.06049541       0.34048204
Fe       0.14751000       6.42079000       3.51005000      -3.07002100       1.32407200      -2.30638400      -3.04427486       1.26095464      -2.34823594