54
Lattice="8.579999685 0.0 0.0 0.0 8.579999685 0.0 0.0 0.0 8.5799996" Properties=species:S:1:pos:R:3:REF_forces:R:3:MACE_forces:R:3 config_type=Fe34B10Si10 REF_energy=-352.89092233 MACE_energy=-354.1981461062841 pbc="T T T"
Fe       1.46495000       0.71583000       1.12880000       3.73230100      -3.41607500      -3.76209700       3.49448081      -3.07660623      -3.08831262
Fe       0.56244000       2.07917000       1.96452000      -3.31290700       4.06628900       2.54508600      -3.53821899       3.83955111       1.96012754
Fe       0.86636000       2.12990000       5.00906000     -10.85567700      -2.87102900      12.20968700     -10.25983625      -2.57542356      11.95270398
Fe       0.24697000       2.61233000       7.83061000      -0.37811800      -2.03816900      -0.08744800      -0.40086082      -2.47354456       0.19067931
Fe       0.35437000       4.66395000       8.16447000      -1.30300600       1.62250000       0.84662400      -1.42136003       2.20776944       0.92502093
Fe       0.83543000       8.00840000       3.01492000       5.54921000      -2.55787300       0.52513800       5.57980145      -2.83403658       1.01258035
Fe       2.03952000       7.84431000       6.63062000      -4.28706100       1.82495200      -1.68802900      -4.42804370       2.20447548      -1.71593725
Fe       3.34318000       0.11090000       2.96052000      -0.46571400      -0.35056300       0.37864800      -0.55188252      -0.09377907       0.71628284
Fe       3.26317000       2.11539000       1.48699000      -3.47884800      -0.03222100       0.61542300      -3.33278561      -0.02282005      -0.35300884
Fe       4.14313000       2.75755000       3.31065000      -0.71378000      -2.73118300       1.93004800      -0.22083587      -2.13903386       1.73802255
Fe       2.55051000       2.67374000       7.19710000      -2.55215900      -0.93589000       1.77261600      -2.31106240      -0.92203042       1.84972757
Fe       3.61327000       2.86500000       5.46497000       1.55763200       0.20514300      -0.56676300       1.46097597       0.46577438      -0.75170833
Fe       2.62400000       4.72550000       1.39174000      -1.08585200      -1.19598700       0.59645400      -1.01456994      -1.18318888       0.59664779
Fe       2.20317000       5.21693000       3.87451000      -3.92870900      -4.38103900      -4.92199500      -3.82203190      -4.56562917      -5.59959317
Fe       3.93082000       4.37819000       8.08226000       1.07616800       0.44807800      -0.99700400       1.12214862       0.45750349      -0.35551183
Fe       2.44961000       7.01753000       1.08943000       0.32119000      -1.55635000       3.27006500       0.59025123      -1.26676306       2.77057459
Fe       3.02500000       6.15780000       5.08193000      -1.08486800       1.64126100       3.95415400      -0.16115257       1.69092586       4.44281130
Fe       5.77712000       0.44616000       0.16142000      -2.43333700       0.07175000       4.13474700      -2.00230660       0.24290735       4.27450918
Fe       5.66964000       0.14892000       2.95259000      -3.67617900       1.90971100       0.12919700      -3.60943905       1.97602833       0.06943923
Fe       5.39484000       2.66317000       1.55162000       4.08183700      -3.39937100       3.88213200       3.92153691      -3.46159306       4.02858697
Fe       5.91309000       3.40423000       8.31953000       8.90196200       5.48305700      -2.72562400       8.23452931       5.45078493      -3.04858887
Fe       4.96126000       4.63305000       3.41410000      -3.60269200      -2.00302700       2.25051900      -3.71724637      -1.97777237       3.29373054
Fe       5.11347000       6.81217000       1.78872000      -0.87770500       0.06714300      -1.61156800      -0.76966576       0.16730736      -1.87824072
Fe       5.00950000       6.45991000       8.24507000      -2.30619500      -0.19808200      -1.52355700      -2.29388706      -0.49630353      -1.91134272
Fe       4.64263000       7.71190000       5.75084000       2.50156800       4.23919200      -1.55456800       2.81339852       4.45351256      -1.45032600
Fe       7.32285000       0.33022000       5.03535000      -0.99210900      -0.59745100       4.73628300      -0.66726591      -0.45861568       4.40439028
Fe       6.75330000       1.32958000       7.05071000       0.53851300       2.01290400       0.36400700       0.51154351       1.40199398       0.54112872
Fe       6.82686000       2.53028000       3.66692000      -0.08907100      -0.12987400      -0.26318300       0.26474461      -0.14619381      -0.54821830
Fe       6.83617000       5.56618000       0.59386000       1.74434500       1.47371700      -3.32847200       1.36697172       0.95435229      -3.26775069
Fe       8.27091000       4.29855000       2.87718000       3.23308900       0.33980500       1.37352500       3.06227593       0.03648899       1.25547558
Fe       6.58774000       4.90718000       4.97515000      -1.87594500       0.58060600      -0.05143700      -2.36403028       1.43457474      -1.40733025
Fe       6.86773000       6.79187000       3.27473000       1.52763600      -2.76254700       0.67579100       1.37954315      -2.53827787       0.54442867
Fe       8.09083000       8.29691000       0.84396000      -4.18921500      -1.95965200       9.56442300      -3.75420034      -1.43699334       9.82045222
Fe       6.62133000       7.67903000       7.47205000      -3.65417600       1.51975600      -3.32990400      -4.63737209       1.47580404      -4.08055638
B        3.45077000       6.81738000       6.75435000       2.04131500      -2.79808300       3.80923700       2.20635395      -3.10494968       3.91189756
B        4.67436000       1.10514000       4.73414000       0.75036200       0.95391600      -0.52852700       0.24788385       0.15421201      -0.37908872
B        6.18153000       2.20088000       5.47737000      -4.49435700      -3.20609500      -2.27763700      -4.39245635      -2.66648878      -2.38428548
B        5.08133000       4.10197000       6.35983000       0.35152900       0.25548900      -0.65354500       0.38548753       0.13437573      -0.24905811
B        4.48663000       4.29393000       1.40792000      -0.27448100       1.04603100       0.21283300      -0.45503319       1.08123199      -0.00871220
B        4.96286000       5.88068000       6.14703000       0.60492000      -1.85032800       0.29314600       0.17217846      -1.52241081       0.51694876
B        8.17242000       5.65216000       5.55863000       1.00443800       0.65677900      -0.69824300       2.32120414      -0.00637803      -0.62603348
B        7.98743000       6.92663000       6.60530000       5.86774900       2.58695800      -4.05103700       5.28570946       2.55025511      -2.96851877
B        7.10769000       5.72812000       6.91109000      -2.33709700      -3.34606800       1.34633400      -2.49649628      -3.46248563       1.66647273
B        7.81665000       6.81498000       8.33858000       5.04350100      -2.41043400       0.97359300       5.11428031      -2.93097098       0.46731394
Si       0.06983000       0.14925000       7.74742000       4.12649000       2.60901100      -8.87608100       4.22541305       2.95662165      -8.87959606
Si       1.93337000       2.41223000       3.74634000      10.14534600       2.98113100     -12.18526000       9.57164889       2.73143245     -11.26687029
Si       0.75978000       6.02813000       1.69309000      -4.13401100      -0.74920300       1.02787300      -3.61362209      -1.15753760       0.82170900
Si       2.22023000       5.10313000       7.16329000      -1.58663400       1.19675500      -1.89967800      -1.64045268       1.13338920      -1.79434952
Si       3.27754000       8.17117000       8.35443000       4.04667900       4.58101600      -2.24829100       3.68541552       4.50047108      -1.79214775
Si       4.48145000       2.18337000       8.34202000      -5.72220500      -5.96162700      -4.99603400      -5.81323584      -5.92220947      -4.95960752
Si       6.36439000       4.54151000       2.12641000       2.28764700      -2.33178900       1.39384200       2.27379143      -2.15134166       1.07069296
Si       4.52267000       6.51460000       3.75633000       0.42177200       5.22743800       1.25328700       0.40116907       5.06500053       0.82951609
Si       7.68278000       0.22257000       3.11016000      -0.17295300       4.89916800      -3.86478000      -0.31448954       4.49136233      -3.85370799
Si       7.35363000       3.38410000       6.13231000       4.40786200       1.27045000       2.62604800       4.31110266       1.33527132       2.94653073
54
Lattice="8.579999685 0.0 0.0 0.0 8.579999685 0.0 0.0 0.0 8.5799996" Properties=species:S:1:pos:R:3:REF_forces:R:3:MACE_forces:R:3 config_type=Fe34B10Si10 REF_energy=-354.71875992 MACE_energy=-354.2515599051845 pbc="T T T"
Fe       0.43313000       1.19321000       2.96848000       1.47291300       2.99028000       0.61180900       1.85866135       2.64179639       0.56288072
Fe       0.91365000       1.12516000       8.09995000       2.76260400      -2.00335600       1.20968300       2.71730728      -1.77180540       1.51504836
Fe       1.17142000       2.67870000       5.23446000      -1.90323000       6.04651700       0.58026800      -2.96922402       6.58942829       0.50139607
Fe       0.60772000       3.85484000       0.87278000       2.66909500       4.89444800       4.53699300       2.55408737       5.39684131       4.26786682
Fe       1.41565000       3.44858000       3.01161000      -0.29549500       2.03729500      -0.74017400       0.27092227       1.85522534      -0.68433263
Fe       0.04226000       2.91249000       8.09734000      -3.39897200      -2.84207300      -2.69442200      -3.79979620      -3.29587946      -3.29327216
Fe       1.33282000       7.09057000       5.22634000      -0.45239700      -1.35392500       0.92503500       0.00053280      -1.31845268       0.66243097
Fe       2.06045000       7.92051000       0.98063000      -3.11321000      -0.30108300      -2.49280600      -3.68941194      -0.40143993      -2.70819607
Fe       2.03627000       8.24295000       3.50701000      -1.42216600       4.38122900       0.88517600      -1.62808069       4.02605111       0.67538600
Fe       0.01253000       8.02686000       7.00667000       2.58679700       0.98610200     -11.80201700       2.04834774       0.47636381     -11.73681341
Fe       3.00353000       0.57289000       6.13981000      -1.03922300       0.18357300       0.93137300      -0.55288430       0.53097423       0.74175664
Fe       3.69949000       2.65196000       7.51811000       2.76433000      -4.34399200      -3.80269000       1.78170972      -3.99191021      -3.86109143
Fe       2.94478000       6.44154000       3.03987000       7.21319500      -3.66655800      -1.17614100       7.42421138      -2.94714426      -0.58051299
Fe       2.94309000       5.75189000       6.64956000      -6.24071800      -0.74678300       3.86021800      -6.01642361      -0.80450401       4.55871042
Fe       3.71160000       8.39321000       1.86324000       2.24845700      -0.43546600       0.28887200       3.09796521      -0.19385576       1.01062426
Fe       4.07810000       8.43915000       4.32840000       2.88035800       1.28304800      -0.49181300       2.67696181       1.50316507      -0.64747891
Fe       5.57499000       0.73262000       6.31633000      -3.12774100      -1.68249800      -0.98058200      -2.86339595      -2.21263996      -1.61882004
Fe       4.70712000       1.94493000       1.65492000      -2.04675700       4.97917500      -3.67899600      -1.05877669       4.60415291      -4.06695398
Fe       4.73401000       4.18392000       1.24748000       0.71501700       1.80608500      -0.06999200       0.69889184       1.72169935       0.07550770
Fe       4.56687000       4.22266000       4.39618000       0.73801700       3.32591500      -2.10569900       0.34142229       4.36936327      -2.56796624
Fe       4.51224000       4.61167000       7.05684000       2.53211900      -0.41024200       0.53825400       2.77566836      -0.22521115       0.37523065
Fe       6.32808000       6.81945000       4.24288000      -3.20445400      -0.33519400      -1.28892300      -2.61818707      -0.45836983      -1.21871391
Fe       6.22240000       7.17309000       0.16230000      -3.30904600      -2.75215800       1.90373500      -2.90288527      -2.99843128       2.00724933
Fe       4.54224000       7.44382000       7.03838000       0.17895600      -5.02037800      -8.74618400      -0.03156942      -5.04510657      -7.92704064
Fe       4.73272000       8.55832000       8.35561000      -0.10588400       8.96287400       6.54083400      -1.11874470       8.45670944       5.44306164
Fe       7.67285000       2.82429000       2.17742000      -2.12886900      -0.76272600      -2.06587500      -2.35471565      -0.85089180      -1.94150966
Fe       6.74071000       1.77406000       4.33655000       0.47479500       0.50025500      -0.42349800       0.09049066       0.63282053      -0.62586332
Fe       7.16362000       1.61896000       6.68131000       5.11373900       1.83737400       0.70818800       5.00135793       1.87023743       1.04036226
Fe       6.73653000       4.13840000       7.84564000       0.19062300       0.32905600       3.59274800       0.12915144       1.25569947       3.70592820
Fe       6.61248000       5.35948000       2.44590000       0.96755600      -0.77403900      -0.47053600       0.57315402      -0.61150251      -0.26796366
Fe       8.39074000       4.95678000       4.82580000       0.50677700       3.21370700       1.22596300       0.77922304       2.78826312       1.09673743
Fe       6.62275000       6.29700000       6.29237000       0.91106900      -0.58785400       1.74696000       0.65187435      -0.58214160       1.73891505
Fe       8.00875000       8.14674000       2.12563000      -1.25903800      -1.94608200      -3.37077000      -1.42559207      -1.58354423      -3.78458466
Fe       7.96861000       8.10559000       4.08816000       1.24434400       0.03207600       4.40361200       0.99300518       0.27974321       4.64253655
B        3.14587000       1.61638000       2.59818000      -3.96044800      -1.57388800      -2.24367700      -4.06761212      -0.99963308      -1.55498326
B        4.07212000       1.93087000       3.78701000       0.55534200       0.12762300      -3.25123200       1.13463803      -1.14068824      -3.60416531
B        2.24412000       1.90783000       4.05913000      -1.80380000      -9.70850100      -5.48536600      -2.48656697     -11.06674012      -5.08527251
B        2.90130000       3.06657000       4.45062000       2.48509300       7.60479000      -1.50334300       3.12077231       7.53587909      -1.85669263
B        2.82587000       3.80138000       5.80651000       0.21675600       2.27927400       3.92227300       0.68076645       2.90287042       3.66504261
B        2.60929000       5.04297000       1.66311000       0.12617300      -0.77075900      -0.46531300      -0.05261035      -0.84181172      -0.54643162
B        2.47198000       4.95014000       4.32601000      -0.76752800      -1.31946700       0.35153300      -0.79437137      -1.54401913       0.62544122
B        2.73354000       7.81887000       7.66829000      -1.47869400      -0.15377200       0.00458000      -0.91621807      -0.15392503       0.17038956
B        5.68071000       2.28134000       7.79544000      -0.95924500       0.41857400       1.11780500      -0.42489720      -0.04559982       0.88920688
B        7.77536000       3.70665000       3.76574000      -0.44877700      -1.48394500      -0.38974400      -0.65570404      -1.39270101      -0.25697900
Si       0.79518000       0.92195000       5.77957000      -1.66645900      -4.94136200      -1.10925300      -1.31730060      -4.80472727      -0.91021290
Si       0.88055000       4.20706000       6.73551000       1.15626000       3.58432200      -0.32349000       1.04602198       3.59270257       0.26720295
Si       1.15025000       6.44729000       2.43826000      -7.77651300      -1.83655100      -1.54918700      -8.07017275      -1.71697945      -1.92926881
Si       2.82820000       3.29548000       0.50208000      -4.05499500       1.58525200       5.32597100      -3.64047052       1.32761078       4.83083773
Si       4.14031000       6.38272000       0.30005000      -2.16949800      -2.44928300       2.57761000      -2.29177080      -2.30235324       2.13160459
Si       3.68345000       6.43010000       5.01209000       3.98893100       0.98565200      -2.13453700       3.83323671       1.23492895      -2.17036413
Si       5.73751000       0.59059000       2.53265000       5.08228400      -4.90021500       2.23852200       4.70903029      -4.51895175       2.84880911
Si       4.51163000       2.47994000       5.36819000       2.60737700      -2.86786400       7.12589500       2.89347692      -2.85320757       7.32087044
Si       6.43436000       3.75222000       5.86206000       1.38008400       0.66155200      -3.64612400       1.03569831       0.43064153      -3.25742389
Si       8.06432000       7.52318000       8.55473000       2.36409700      -3.06603600      11.34847700       2.82879532      -3.34899959      11.33187359
18
Lattice="6.5 0.0 0.0 0.0 6.5 0.0 0.0 0.0 6.5" Properties=species:S:1:pos:R:3:REF_forces:R:3:MACE_forces:R:3 config_type=Fe12B3Si3 REF_energy=-113.87843945 MACE_energy=-121.5458788043994 pbc="T T T"
Fe       5.40234000       5.43492000       1.53729000      -1.39532100       2.04028400       0.71142300      -2.50539633       2.58089997       1.10203992
Fe       2.09750000       2.10361000       0.54730000       2.35673700      -0.33103000       1.27254800       2.88918803      -0.71321838       2.72762867
Fe       2.84360000       1.73250000       3.81271000       2.28004000      -1.18251600      -0.27344700       2.27894796      -1.29551569      -0.43727120
Fe       0.77541000       4.93717000       1.04317000       1.56096300      -3.83372900       1.76362000       2.34257549      -3.89169339       1.61206417
Fe       0.07665000       3.70431000       3.74351000      -0.75952900      -0.39175400      -2.23189700      -1.19330335      -0.42103759      -2.18112330
Fe       4.77171000       3.58949000       4.78220000      -1.99219600      -4.62409700       0.48420500      -1.41069983      -4.29701763       0.42113858
Fe       4.12430000       1.49867000       1.46476000       0.29771700      -2.38794700       0.28396300       0.46212829      -3.50426824       0.83743058
Fe       0.95387000       5.17746000       5.28728000      -0.57085000      -0.50160400      -1.80733600      -0.59773711       0.05639133      -1.34057352
Fe       1.93602000       3.09888000       2.36598000      -0.08855100       0.43128300      -0.27209000      -0.17086492       1.05510539      -0.77636475
Fe       5.69037000       1.28357000       4.20026000      -0.40866000      -0.49067900       0.18976600      -0.65238908      -0.48477155       0.29172206
Fe       1.94321000       2.86141000       5.39871000      -0.55906500       0.73218900      -1.80086600      -0.99485374       1.88330717      -2.48781452
Fe       4.33122000       5.38124000       5.25469000      -0.73272900       4.56545400       1.52017900      -0.74312965       4.45271074       1.23349605
B        0.37598000       1.64060000       1.21420000      -3.21263000       2.85095800       0.76078000      -3.32611955       2.69245541       0.11750467
B        1.88110000       4.04794000       3.96741000       2.48956600       2.45119300      -0.32261600       2.65548715       2.26033787      -0.37130326
B        3.63878000       0.94242000       5.41981000      -0.01444500       0.67937600       0.95779200       0.48133333       0.02468806       0.74334852
Si       1.19380000       0.26963000       0.19686000       0.54051800       0.24528300      -1.93219100       0.52444145      -0.19994900      -2.08442363
Si       4.57825000       3.47658000       1.16117000       0.15934200       1.26766700      -0.81102600      -0.18158051       1.48110018      -0.92209737
Si       1.09558000       0.76720000       2.75124000       0.04909300      -1.52033200       1.50719200       0.14197239      -1.67952464       1.51459832
54
Lattice="8.579999685 0.0 0.0 0.0 8.579999685 0.0 0.0 0.0 8.5799996" Properties=species:S:1:pos:R:3:REF_forces:R:3:MACE_forces:R:3 config_type=Fe34B10Si10 REF_energy=-356.0869274 MACE_energy=-356.3855845512159 pbc="T T T"
Fe       0.92877000       1.08311000       2.12831000      -0.53214900      -1.15432400       0.53007800      -0.53633284      -0.64450198       0.62052692
Fe       1.12794000       0.45096000       7.37327000      -2.86345100       2.18226700       1.45805300      -2.53721375       2.30427870       1.69155392
Fe       0.91289000       3.61082000       1.96264000      -1.66570100       0.50807500      -4.76654600      -2.41924966       0.09204454      -4.62084798
Fe       0.97242000       3.25012000       3.83975000      -0.85629000      -1.23507100      -0.91491200      -0.32515747      -0.76940747      -0.13960089
Fe       1.43574000       3.84332000       5.84621000      -1.94378300      -0.72872400       4.94145300      -1.75677509      -0.84817117       4.23151792
Fe       0.45897000       5.99881000       1.32384000       1.86679900       1.45939200      -0.33976700       2.11493636       1.85857939      -0.22863045
Fe       0.05714000       6.25044000       6.01250000       0.66851500      -0.88142700       1.67028200       1.15130737      -1.16339276       1.80526351
Fe       1.87526000       7.05991000       7.27744000      -5.90957000       6.81146600       5.95768600      -5.74943890       6.96298251       5.27740462
Fe       4.21220000       0.80536000       3.81626000       0.44958900      -1.97725700       0.54591300       0.36718110      -1.59795718      -0.06886257
Fe       2.64196000       0.75311000       5.88605000       0.80305000      -0.92688600      -1.50973400       0.42258618      -0.59886357      -1.53624090
Fe       2.51735000       4.27963000       7.86001000      -0.17185400       2.88247300       0.00075600      -0.44058653       2.45972297      -0.59048168
Fe       2.46175000       4.76211000       4.38544000       2.27245000       6.36429500      -0.60000700       2.24801927       5.56306335      -0.95911001
Fe       3.99132000       4.46692000       6.09268000      -0.21521200      -1.96607600      -0.25853400      -0.61025083      -2.06357118      -0.62636675
Fe       4.03283000       6.20484000       2.50717000       0.32509400      -1.83048700       1.07686200       0.49265581      -1.83916196       0.83388290
Fe       2.62183000       8.12097000       1.25125000      -5.45108600      -1.04608100      -0.88869000      -4.66735179      -1.27850455      -0.71401012
Fe       2.34208000       7.49949000       3.33705000      -1.45221900       0.10179900       1.96325000      -1.33316839       0.18128051       1.96020571
Fe       4.67554000       0.98699000       8.35162000       1.97529500       0.95938300       0.07305200       2.31366118       1.02201932       0.47583009
Fe       4.68615000       2.28426000       1.60336000       6.03713100       4.39249100       1.56082500       7.20003164       4.63393344       1.30506671
Fe       4.95897000       4.28949000       0.91503000       1.24258400       3.77490300      -1.07876200       1.64610097       3.51116652      -1.38785947
Fe       5.62605000       3.84953000       3.25301000      -4.56775200       3.43217100       2.09526400      -4.52464614       3.55348838       1.10008696
Fe       5.63153000       5.70233000       4.67966000       0.04558900       0.36352900      -0.74034800      -0.54355938      -0.17225070      -0.59681823
Fe       5.00954000       6.14620000       6.89198000       4.51113600      -2.60361300       1.43664400       3.64584832      -2.42274048       1.36338296
Fe       5.34723000       7.32984000       0.56425000       3.41130600      -7.55812200      -7.44238600       3.15041001      -6.78021938      -7.19083758
Fe       4.57141000       8.20633000       1.67615000      -2.51651100       6.57056000       9.11650700      -2.90387525       5.90922163       8.98020263
Fe       5.67084000       7.83697000       6.02451000      -0.02983000       3.57151200       0.33120700      -0.03808884       4.37390059       0.44737013
Fe       7.65837000       1.05332000       0.64336000       1.95813700       2.93603900      -3.62028800       1.63749208       2.71190517      -3.70414971
Fe       7.23579000       1.49494000       3.62009000       0.88838800      -1.50203300       3.00240400       0.48824265      -1.22611368       3.16285379
Fe       6.96409000       1.59543000       6.70415000       0.40175100      -2.57633900      -0.54943900       0.40363354      -2.97811217      -0.47250488
Fe       6.97946000       3.05325000       2.27831000       3.01329100      -2.85779700      -7.80747400       2.53588263      -3.92708633      -6.37532371
Fe       7.05854000       3.62734000       7.13255000       0.94483300       2.42104600       2.56329500       0.96075843       2.80171345       2.18070459
Fe       7.47490000       4.49325000       0.92243000      -3.13561000       0.06366500       0.11142200      -3.25425769       0.82348780      -0.77535800
Fe       7.76499000       5.40883000       4.05655000       3.42051700      -2.49950500       1.10150300       3.52984601      -2.36941507       0.82688794
Fe       6.91686000       6.16423000       2.38917000      -4.34160700       0.52717700      -3.24358900      -4.76198690       0.15923081      -2.80799495
Fe       7.31773000       7.39473000       4.73130000      -1.41907300       3.06948200       1.38572900      -1.14149986       3.32680124       0.96401792
B        1.63947000       5.44017000       2.85377000      -1.37965300       1.67099600      -0.34434500      -1.53501121       1.62660849      -0.28248183
B        3.47444000       1.29905000       1.69513000      -6.04542900      -7.46227000      -1.52467000      -5.68660117      -7.53563873      -1.15616368
B        2.31673000       1.42955000       3.77944000      -1.85652800      -2.14982900       3.21956500      -1.44200108      -2.04804442       3.17485277
B        3.17088000       0.01260000       8.16689000      -2.14308300      -0.12737100      -3.63430700      -1.73047390      -0.41442697      -3.08692900
B        2.48887000       2.23189000       2.44876000      -1.30373000       3.96631200      -0.94871100      -1.24674655       4.12104440      -0.37182064
B        3.55016000       3.21990000       0.17024000       2.13469500      -3.52588700       0.23974700       1.71587889      -3.43771573       0.73772742
B        3.12966000       3.07291000       4.24572000      -6.99085300       0.34377600      -0.16579100      -6.74971760       0.10725402       0.11057005
B        2.38358000       5.95301000       6.34325000       2.25901800      -8.76611800      -6.31465800       2.46907808      -9.30608910      -6.46933213
B        4.46260000       2.62992000       4.23823000       7.08507900      -1.75449200       0.40993300       5.90859270      -1.95872389       0.11976373
B        7.51183000       3.59374000       3.85724000       1.49621300      -1.20378300       3.39561400       1.57216059      -0.92955792       3.45486651
Si       0.50050000       1.66927000       5.10425000      -1.02554400      -2.67263500       2.61432900      -0.69846053      -2.66852812       2.40558440
Si       0.41923000       4.50138000       8.15701000       0.82744200      -0.47721100      -2.57541600       0.95319555      -0.17396595      -2.75454656
Si       2.90131000       4.25049000       1.93860000       2.71957100       0.04497600      -0.88170100       2.71396268       0.14657877      -0.66424824
Si       3.74353000       6.85388000       5.19884000      -1.20766000       1.80214700      -2.20114300      -1.24613819       1.54139139      -1.93358248
Si       3.54209000       6.47938000       8.21357000      -0.45014500      -1.75854100       4.24377300      -0.40353250      -1.72870066       4.55536284
Si       4.55252000       1.74669000       6.40118000       0.28733400       0.20348600      -1.69136000      -0.15368983       0.15615925      -1.43895846
Si       5.87020000       3.30923000       5.41310000       1.93974000       0.55942400      -1.14043100       1.99928995       0.99544355      -0.81575404
Si       6.68392000       0.09389000       2.07850000      -2.78148600      -1.30329400       2.70552900      -2.50906033      -1.13988775       2.46988282
Si       7.30980000       7.36953000       0.08595000       4.18267400      -0.22507900      -1.67891000       4.25217163      -0.92447950      -1.80350794
Si       8.41387000       7.50606000       2.97540000       5.08859000       1.78741200      -0.88875800       5.05194856       2.00192820      -0.68304689
54
Lattice="8.579999685 0.0 0.0 0.0 8.579999685 0.0 0.0 0.0 8.5799996" Properties=species:S:1:pos:R:3:REF_forces:R:3:MACE_forces:R:3 config_type=Fe34B10Si10 REF_energy=-359.84864784 MACE_energy=-360.3282421111129 pbc="T T T"
Fe       0.39531000       2.37288000       0.87042000       3.27925500       2.43832800      -1.60261100       2.94414405       2.68726254      -1.58721815
Fe       0.75383000       1.65209000       3.11094000       1.30783500      -0.34615400      -0.09267000       0.68675425      -0.61576935       0.21911340
Fe       1.33201000       3.79282000       7.26231000      -2.40668100      -1.18131200       0.32245500      -2.04108812      -0.73683799       0.88393876
Fe       0.64436000       4.41396000       2.97573000       2.42004200      -2.26182600       0.38963900       2.08817702      -2.15990390       0.56570506
Fe       0.14751000       6.42079000       3.51005000      -3.07002100       1.32407200      -2.30638400      -2.96227490       1.07937012      -2.35173874