54
Lattice="8.579999685 0.0 0.0 0.0 8.579999685 0.0 0.0 0.0 8.5799996" Properties=species:S:1:pos:R:3:REF_forces:R:3:MACE_forces:R:3 config_type=Fe34B10Si10 REF_energy=-352.89092233 MACE_energy=-353.2941063523812 pbc="T T T"
Fe       1.46495000       0.71583000       1.12880000       3.73230100      -3.41607500      -3.76209700       3.66867201      -3.43810616      -3.54065415
Fe       0.56244000       2.07917000       1.96452000      -3.31290700       4.06628900       2.54508600      -3.34574827       4.06140936       2.34975257
Fe       0.86636000       2.12990000       5.00906000     -10.85567700      -2.87102900      12.20968700     -10.88030414      -2.94424504      12.20566933
Fe       0.24697000       2.61233000       7.83061000      -0.37811800      -2.03816900      -0.08744800      -0.37187259      -2.06404887       0.09156093
Fe       0.35437000       4.66395000       8.16447000      -1.30300600       1.62250000       0.84662400      -1.36096130       1.76533361       0.78575910
Fe       0.83543000       8.00840000       3.01492000       5.54921000      -2.55787300       0.52513800       5.60040886      -2.64242436       0.46573903
Fe       2.03952000       7.84431000       6.63062000      -4.28706100       1.82495200      -1.68802900      -4.07088532       2.03526706      -1.71652108
Fe       3.34318000       0.11090000       2.96052000      -0.46571400      -0.35056300       0.37864800      -0.49627126      -0.17059821       0.45591483
Fe       3.26317000       2.11539000       1.48699000      -3.47884800      -0.03222100       0.61542300      -3.30225395      -0.25874973       0.25016190
Fe       4.14313000       2.75755000       3.31065000      -0.71378000      -2.73118300       1.93004800      -0.70159723      -2.44349393       1.88171619
Fe       2.55051000       2.67374000       7.19710000      -2.55215900      -0.93589000       1.77261600      -2.27405279      -1.02869421       1.69739615
Fe       3.61327000       2.86500000       5.46497000       1.55763200       0.20514300      -0.56676300       1.45904065       0.29992159      -0.28659526
Fe       2.62400000       4.72550000       1.39174000      -1.08585200      -1.19598700       0.59645400      -1.33757075      -0.96991984       0.67960092
Fe       2.20317000       5.21693000       3.87451000      -3.92870900      -4.38103900      -4.92199500      -3.90358767      -4.32461276      -5.05447927
Fe       3.93082000       4.37819000       8.08226000       1.07616800       0.44807800      -0.99700400       0.96043207       0.24109396      -1.00987885
Fe       2.44961000       7.01753000       1.08943000       0.32119000      -1.55635000       3.27006500       0.44164437      -1.60544757       3.34950031
Fe       3.02500000       6.15780000       5.08193000      -1.08486800       1.64126100       3.95415400      -0.34592338       1.69208630       4.01670404
Fe       5.77712000       0.44616000       0.16142000      -2.43333700       0.07175000       4.13474700      -2.42260851       0.41868427       4.17746297
Fe       5.66964000       0.14892000       2.95259000      -3.67617900       1.90971100       0.12919700      -3.69500769       1.66190582       0.30909680
Fe       5.39484000       2.66317000       1.55162000       4.08183700      -3.39937100       3.88213200       3.98697147      -3.76722937       4.14307528
Fe       5.91309000       3.40423000       8.31953000       8.90196200       5.48305700      -2.72562400       8.72911879       5.41321123      -2.75657017
Fe       4.96126000       4.63305000       3.41410000      -3.60269200      -2.00302700       2.25051900      -3.89054377      -2.34635262       2.39022831
Fe       5.11347000       6.81217000       1.78872000      -0.87770500       0.06714300      -1.61156800      -0.72529335       0.12609933      -1.64112368
Fe       5.00950000       6.45991000       8.24507000      -2.30619500      -0.19808200      -1.52355700      -2.20808984      -0.02846737      -1.74848268
Fe       4.64263000       7.71190000       5.75084000       2.50156800       4.23919200      -1.55456800       2.55909688       4.27656488      -1.60184900
Fe       7.32285000       0.33022000       5.03535000      -0.99210900      -0.59745100       4.73628300      -0.97356262      -0.35699633       4.70254905
Fe       6.75330000       1.32958000       7.05071000       0.53851300       2.01290400       0.36400700       0.48848057       1.87049692       0.32194215
Fe       6.82686000       2.53028000       3.66692000      -0.08907100      -0.12987400      -0.26318300       0.03723915      -0.19524824      -0.21175266
Fe       6.83617000       5.56618000       0.59386000       1.74434500       1.47371700      -3.32847200       1.78863457       1.76346392      -3.48678431
Fe       8.27091000       4.29855000       2.87718000       3.23308900       0.33980500       1.37352500       3.09068713       0.18374828       1.32589053
Fe       6.58774000       4.90718000       4.97515000      -1.87594500       0.58060600      -0.05143700      -2.07667031       0.58883568      -0.51191820
Fe       6.86773000       6.79187000       3.27473000       1.52763600      -2.76254700       0.67579100       1.47212178      -2.45051957       0.36498653
Fe       8.09083000       8.29691000       0.84396000      -4.18921500      -1.95965200       9.56442300      -4.20431815      -2.24655039       9.63754884
Fe       6.62133000       7.67903000       7.47205000      -3.65417600       1.51975600      -3.32990400      -3.97504067       1.30232484      -3.47071964
B        3.45077000       6.81738000       6.75435000       2.04131500      -2.79808300       3.80923700       1.96346212      -2.86842020       3.91591332
B        4.67436000       1.10514000       4.73414000       0.75036200       0.95391600      -0.52852700       0.79700242       0.94319340      -0.42628551
B        6.18153000       2.20088000       5.47737000      -4.49435700      -3.20609500      -2.27763700      -4.63242321      -3.15851725      -2.45345873
B        5.08133000       4.10197000       6.35983000       0.35152900       0.25548900      -0.65354500       0.49081554       0.29270287      -0.57296006
B        4.48663000       4.29393000       1.40792000      -0.27448100       1.04603100       0.21283300      -0.23508660       1.22547786       0.22495596
B        4.96286000       5.88068000       6.14703000       0.60492000      -1.85032800       0.29314600       0.46818310      -1.86176623       0.12620754
B        8.17242000       5.65216000       5.55863000       1.00443800       0.65677900      -0.69824300       1.06220682       0.71901555      -0.23081649
B        7.98743000       6.92663000       6.60530000       5.86774900       2.58695800      -4.05103700       5.76922230       2.29499054      -3.57423153
B        7.10769000       5.72812000       6.91109000      -2.33709700      -3.34606800       1.34633400      -2.12683361      -3.41754658       1.51186933
B        7.81665000       6.81498000       8.33858000       5.04350100      -2.41043400       0.97359300       5.00300266      -2.58782096       0.51186323
Si       0.06983000       0.14925000       7.74742000       4.12649000       2.60901100      -8.87608100       3.97568844       2.58789317      -8.80799583
Si       1.93337000       2.41223000       3.74634000      10.14534600       2.98113100     -12.18526000      10.22309873       3.04949969     -12.01405152
Si       0.75978000       6.02813000       1.69309000      -4.13401100      -0.74920300       1.02787300      -4.13322417      -0.86655242       0.96531339
Si       2.22023000       5.10313000       7.16329000      -1.58663400       1.19675500      -1.89967800      -1.66466665       1.16787493      -1.84618340
Si       3.27754000       8.17117000       8.35443000       4.04667900       4.58101600      -2.24829100       3.91845975       4.52282078      -2.37624201
Si       4.48145000       2.18337000       8.34202000      -5.72220500      -5.96162700      -4.99603400      -5.45619415      -5.91168197      -5.15331590
Si       6.36439000       4.54151000       2.12641000       2.28764700      -2.33178900       1.39384200       2.56724696      -2.14445071       1.26620478
Si       4.52267000       6.51460000       3.75633000       0.42177200       5.22743800       1.25328700       0.12397547       5.31056797       1.34409855
Si       7.68278000       0.22257000       3.11016000      -0.17295300       4.89916800      -3.86478000      -0.23288079       4.85670903      -3.93223378
Si       7.35363000       3.38410000       6.13231000       4.40786200       1.27045000       2.62604800       4.39856010       1.42726806       2.95642180
54
Lattice="8.579999685 0.0 0.0 0.0 8.579999685 0.0 0.0 0.0 8.5799996" Properties=species:S:1:pos:R:3:REF_forces:R:3:MACE_forces:R:3 config_type=Fe34B10Si10 REF_energy=-354.71875992 MACE_energy=-355.3906530791545 pbc="T T T"
Fe       0.43313000       1.19321000       2.96848000       1.47291300       2.99028000       0.61180900       1.45702320       2.89515036       0.37537200
Fe       0.91365000       1.12516000       8.09995000       2.76260400      -2.00335600       1.20968300       2.38585800      -1.85539702       1.07333689
Fe       1.17142000       2.67870000       5.23446000      -1.90323000       6.04651700       0.58026800      -1.69390251       6.14271623       0.37058834
Fe       0.60772000       3.85484000       0.87278000       2.66909500       4.89444800       4.53699300       2.64054757       5.10082343       4.13227891
Fe       1.41565000       3.44858000       3.01161000      -0.29549500       2.03729500      -0.74017400      -0.00080491       1.92690050      -0.65880972
Fe       0.04226000       2.91249000       8.09734000      -3.39897200      -2.84207300      -2.69442200      -2.78101070      -3.00892073      -2.44573877
Fe       1.33282000       7.09057000       5.22634000      -0.45239700      -1.35392500       0.92503500      -0.23270467      -1.47750249       0.95009737
Fe       2.06045000       7.92051000       0.98063000      -3.11321000      -0.30108300      -2.49280600      -3.27330082      -0.43252361      -2.48593259
Fe       2.03627000       8.24295000       3.50701000      -1.42216600       4.38122900       0.88517600      -1.52090927       4.10518586       0.63443428
Fe       0.01253000       8.02686000       7.00667000       2.58679700       0.98610200     -11.80201700       2.46776960       0.88052060     -11.94116712
Fe       3.00353000       0.57289000       6.13981000      -1.03922300       0.18357300       0.93137300      -0.77448734       0.14366894       0.98808527
Fe       3.69949000       2.65196000       7.51811000       2.76433000      -4.34399200      -3.80269000       2.60652651      -4.12590606      -3.67552115
Fe       2.94478000       6.44154000       3.03987000       7.21319500      -3.66655800      -1.17614100       6.99032463      -3.46292354      -0.99057870
Fe       2.94309000       5.75189000       6.64956000      -6.24071800      -0.74678300       3.86021800      -6.43154021      -0.63978557       3.99783942
Fe       3.71160000       8.39321000       1.86324000       2.24845700      -0.43546600       0.28887200       2.35042817      -0.09550772       0.68100447
Fe       4.07810000       8.43915000       4.32840000       2.88035800       1.28304800      -0.49181300       2.84980129       1.31591698      -0.77907100
Fe       5.57499000       0.73262000       6.31633000      -3.12774100      -1.68249800      -0.98058200      -2.78947681      -1.72991116      -0.92444505
Fe       4.70712000       1.94493000       1.65492000      -2.04675700       4.97917500      -3.67899600      -2.13348223       4.78794699      -3.42507797
Fe       4.73401000       4.18392000       1.24748000       0.71501700       1.80608500      -0.06999200       0.71590951       1.97701923      -0.12766355
Fe       4.56687000       4.22266000       4.39618000       0.73801700       3.32591500      -2.10569900       0.51571069       3.16419780      -2.15071676
Fe       4.51224000       4.61167000       7.05684000       2.53211900      -0.41024200       0.53825400       2.96366211      -0.73714499       0.48396847
Fe       6.32808000       6.81945000       4.24288000      -3.20445400      -0.33519400      -1.28892300      -2.80581520      -0.23499598      -1.07160518
Fe       6.22240000       7.17309000       0.16230000      -3.30904600      -2.75215800       1.90373500      -3.50162834      -2.96435789       2.04030940
Fe       4.54224000       7.44382000       7.03838000       0.17895600      -5.02037800      -8.74618400       0.30703482      -5.28420772      -8.86940722
Fe       4.73272000       8.55832000       8.35561000      -0.10588400       8.96287400       6.54083400      -0.31592763       9.35139979       6.19617488
Fe       7.67285000       2.82429000       2.17742000      -2.12886900      -0.76272600      -2.06587500      -2.12330572      -0.82783800      -1.97931635
Fe       6.74071000       1.77406000       4.33655000       0.47479500       0.50025500      -0.42349800       0.07828014       0.40874912      -0.45220618
Fe       7.16362000       1.61896000       6.68131000       5.11373900       1.83737400       0.70818800       4.70220344       1.62608801       0.63482189
Fe       6.73653000       4.13840000       7.84564000       0.19062300       0.32905600       3.59274800       0.17120779       0.47194215       3.61243678
Fe       6.61248000       5.35948000       2.44590000       0.96755600      -0.77403900      -0.47053600       0.85190208      -0.66579656      -0.45079888
Fe       8.39074000       4.95678000       4.82580000       0.50677700       3.21370700       1.22596300       0.58946345       3.14339748       1.08341609
Fe       6.62275000       6.29700000       6.29237000       0.91106900      -0.58785400       1.74696000       0.82822678      -0.48711906       1.60439669
Fe       8.00875000       8.14674000       2.12563000      -1.25903800      -1.94608200      -3.37077000      -0.86147448      -1.92217935      -3.43168588
Fe       7.96861000       8.10559000       4.08816000       1.24434400       0.03207600       4.40361200       0.72251571       0.04936405       4.56712865
B        3.14587000       1.61638000       2.59818000      -3.96044800      -1.57388800      -2.24367700      -3.98841263      -1.48991465      -2.02688849
B        4.07212000       1.93087000       3.78701000       0.55534200       0.12762300      -3.25123200       0.39467864       0.17315075      -3.20741600
B        2.24412000       1.90783000       4.05913000      -1.80380000      -9.70850100      -5.48536600      -1.87514839     -10.01886175      -5.62825726
B        2.90130000       3.06657000       4.45062000       2.48509300       7.60479000      -1.50334300       2.84200523       7.25360034      -1.51180615
B        2.82587000       3.80138000       5.80651000       0.21675600       2.27927400       3.92227300       0.27774187       2.16389806       3.91992245
B        2.60929000       5.04297000       1.66311000       0.12617300      -0.77075900      -0.46531300      -0.03148007      -0.81911157      -0.44939079
B        2.47198000       4.95014000       4.32601000      -0.76752800      -1.31946700       0.35153300      -0.80662615      -1.22005707       0.41644070
B        2.73354000       7.81887000       7.66829000      -1.47869400      -0.15377200       0.00458000      -1.52918013      -0.16989930       0.22025906
B        5.68071000       2.28134000       7.79544000      -0.95924500       0.41857400       1.11780500      -0.96593598       0.38006036       1.07062909
B        7.77536000       3.70665000       3.76574000      -0.44877700      -1.48394500      -0.38974400      -0.54395666      -1.40620500      -0.07624208
Si       0.79518000       0.92195000       5.77957000      -1.66645900      -4.94136200      -1.10925300      -1.61779546      -5.02194175      -0.95918004
Si       0.88055000       4.20706000       6.73551000       1.15626000       3.58432200      -0.32349000       1.11445974       3.69748142      -0.23034417
Si       1.15025000       6.44729000       2.43826000      -7.77651300      -1.83655100      -1.54918700      -7.82763833      -1.71230077      -1.70516533
Si       2.82820000       3.29548000       0.50208000      -4.05499500       1.58525200       5.32597100      -4.07213876       1.40861469       5.24460200
Si       4.14031000       6.38272000       0.30005000      -2.16949800      -2.44928300       2.57761000      -2.30183533      -2.40848187       2.47906133
Si       3.68345000       6.43010000       5.01209000       3.98893100       0.98565200      -2.13453700       3.85692654       1.16645839      -2.15164527
Si       5.73751000       0.59059000       2.53265000       5.08228400      -4.90021500       2.23852200       5.10333665      -4.86377634       2.49859955
Si       4.51163000       2.47994000       5.36819000       2.60737700      -2.86786400       7.12589500       2.79255957      -2.60810309       7.07677989
Si       6.43436000       3.75222000       5.86206000       1.38008400       0.66155200      -3.64612400       1.50950529       0.73110176      -3.74499944
Si       8.06432000       7.52318000       8.55473000       2.36409700      -3.06603600      11.34847700       2.71430968      -2.77468271      11.19909324
18
Lattice="6.5 0.0 0.0 0.0 6.5 0.0 0.0 0.0 6.5" Properties=species:S:1:pos:R:3:REF_forces:R:3:MACE_forces:R:3 config_type=Fe12B3Si3 REF_energy=-113.87843945 MACE_energy=-113.07657222437982 pbc="T T T"
Fe       5.40234000       5.43492000       1.53729000      -1.39532100       2.04028400       0.71142300      -1.01109872       1.84050392       0.69863925
Fe       2.09750000       2.10361000       0.54730000       2.35673700      -0.33103000       1.27254800       2.54565602      -0.09549851       1.31477634
Fe       2.84360000       1.73250000       3.81271000       2.28004000      -1.18251600      -0.27344700       2.22067307      -0.98215468      -0.21114622
Fe       0.77541000       4.93717000       1.04317000       1.56096300      -3.83372900       1.76362000       1.25152107      -3.40141203       1.57769500
Fe       0.07665000       3.70431000       3.74351000      -0.75952900      -0.39175400      -2.23189700      -1.18028690      -0.48092500      -2.26142255
Fe       4.77171000       3.58949000       4.78220000      -1.99219600      -4.62409700       0.48420500      -1.64816962      -4.51231450       0.38171094
Fe       4.12430000       1.49867000       1.46476000       0.29771700      -2.38794700       0.28396300       0.27547489      -2.65783778       0.10640911
Fe       0.95387000       5.17746000       5.28728000      -0.57085000      -0.50160400      -1.80733600      -0.93740091      -0.67666035      -1.35797775
Fe       1.93602000       3.09888000       2.36598000      -0.08855100       0.43128300      -0.27209000      -0.22035202       0.49629182      -0.59307082
Fe       5.69037000       1.28357000       4.20026000      -0.40866000      -0.49067900       0.18976600      -0.82153361      -0.31112657       0.23932228
Fe       1.94321000       2.86141000       5.39871000      -0.55906500       0.73218900      -1.80086600      -0.47399742       0.68190678      -1.93587624
Fe       4.33122000       5.38124000       5.25469000      -0.73272900       4.56545400       1.52017900      -0.56483746       4.34918478       1.55443872
B        0.37598000       1.64060000       1.21420000      -3.21263000       2.85095800       0.76078000      -3.00694667       2.70893906       0.84703594
B        1.88110000       4.04794000       3.96741000       2.48956600       2.45119300      -0.32261600       2.67278875       2.41371518      -0.28120113
B        3.63878000       0.94242000       5.41981000      -0.01444500       0.67937600       0.95779200       0.13321008       0.81635474       1.10198249
Si       1.19380000       0.26963000       0.19686000       0.54051800       0.24528300      -1.93219100       0.64020269      -0.01102316      -1.84687334
Si       4.57825000       3.47658000       1.16117000       0.15934200       1.26766700      -0.81102600       0.18518105       1.49327640      -0.78680968
Si       1.09558000       0.76720000       2.75124000       0.04909300      -1.52033200       1.50719200      -0.06008429      -1.67122008       1.45236765
54
Lattice="8.579999685 0.0 0.0 0.0 8.579999685 0.0 0.0 0.0 8.5799996" Properties=species:S:1:pos:R:3:REF_forces:R:3:MACE_forces:R:3 config_type=Fe34B10Si10 REF_energy=-356.0869274 MACE_energy=-356.9607226961485 pbc="T T T"
Fe       0.92877000       1.08311000       2.12831000      -0.53214900      -1.15432400       0.53007800      -0.71473918      -1.19648754       0.40436329
Fe       1.12794000       0.45096000       7.37327000      -2.86345100       2.18226700       1.45805300      -2.83123098       1.97377774       1.44624628
Fe       0.91289000       3.61082000       1.96264000      -1.66570100       0.50807500      -4.76654600      -1.70640620       0.36536391      -4.80168805
Fe       0.97242000       3.25012000       3.83975000      -0.85629000      -1.23507100      -0.91491200      -1.08648482      -1.23590120      -0.19196441
Fe       1.43574000       3.84332000       5.84621000      -1.94378300      -0.72872400       4.94145300      -2.07846373      -0.61790114       4.70252365
Fe       0.45897000       5.99881000       1.32384000       1.86679900       1.45939200      -0.33976700       1.63713039       1.53450744      -0.16699312
Fe       0.05714000       6.25044000       6.01250000       0.66851500      -0.88142700       1.67028200       0.70312210      -0.77157990       1.72484494
Fe       1.87526000       7.05991000       7.27744000      -5.90957000       6.81146600       5.95768600      -5.75225707       7.22182927       5.98797316
Fe       4.21220000       0.80536000       3.81626000       0.44958900      -1.97725700       0.54591300       0.49386894      -1.89704502       0.43466969
Fe       2.64196000       0.75311000       5.88605000       0.80305000      -0.92688600      -1.50973400       0.52343061      -1.04204490      -1.56695944
Fe       2.51735000       4.27963000       7.86001000      -0.17185400       2.88247300       0.00075600      -0.00093818       2.95320569       0.18711202
Fe       2.46175000       4.76211000       4.38544000       2.27245000       6.36429500      -0.60000700       2.18400239       6.34356450      -0.69583986
Fe       3.99132000       4.46692000       6.09268000      -0.21521200      -1.96607600      -0.25853400      -0.17292787      -2.25834358      -0.20084636
Fe       4.03283000       6.20484000       2.50717000       0.32509400      -1.83048700       1.07686200       0.41692039      -1.76635429       1.08482336
Fe       2.62183000       8.12097000       1.25125000      -5.45108600      -1.04608100      -0.88869000      -5.51277766      -1.12148928      -0.64625651
Fe       2.34208000       7.49949000       3.33705000      -1.45221900       0.10179900       1.96325000      -1.25075088       0.18321216       1.63744797
Fe       4.67554000       0.98699000       8.35162000       1.97529500       0.95938300       0.07305200       1.66131237       0.85224817       0.32490269
Fe       4.68615000       2.28426000       1.60336000       6.03713100       4.39249100       1.56082500       6.24530407       4.32673722       1.16387531
Fe       4.95897000       4.28949000       0.91503000       1.24258400       3.77490300      -1.07876200       0.79412522       3.56015078      -1.24958719
Fe       5.62605000       3.84953000       3.25301000      -4.56775200       3.43217100       2.09526400      -4.54564906       3.55125547       1.90126397
Fe       5.63153000       5.70233000       4.67966000       0.04558900       0.36352900      -0.74034800       0.01424241      -0.05054912      -0.59758696
Fe       5.00954000       6.14620000       6.89198000       4.51113600      -2.60361300       1.43664400       4.57738372      -2.37988488       1.43754243
Fe       5.34723000       7.32984000       0.56425000       3.41130600      -7.55812200      -7.44238600       3.46122517      -7.02583564      -7.23695250
Fe       4.57141000       8.20633000       1.67615000      -2.51651100       6.57056000       9.11650700      -2.68320146       6.06856870       8.69585578
Fe       5.67084000       7.83697000       6.02451000      -0.02983000       3.57151200       0.33120700      -0.05490600       3.62638941       0.34685023
Fe       7.65837000       1.05332000       0.64336000       1.95813700       2.93603900      -3.62028800       1.88725907       2.93414862      -3.54907941
Fe       7.23579000       1.49494000       3.62009000       0.88838800      -1.50203300       3.00240400       0.95072305      -1.50930854       3.07797209
Fe       6.96409000       1.59543000       6.70415000       0.40175100      -2.57633900      -0.54943900       0.52063665      -2.54547216      -0.56685823
Fe       6.97946000       3.05325000       2.27831000       3.01329100      -2.85779700      -7.80747400       2.46356023      -2.95024283      -7.27254167
Fe       7.05854000       3.62734000       7.13255000       0.94483300       2.42104600       2.56329500       1.03618260       2.48187129       2.50069923
Fe       7.47490000       4.49325000       0.92243000      -3.13561000       0.06366500       0.11142200      -2.89471840       0.46702321      -0.20701545
Fe       7.76499000       5.40883000       4.05655000       3.42051700      -2.49950500       1.10150300       3.49519169      -2.65824085       1.11601317
Fe       6.91686000       6.16423000       2.38917000      -4.34160700       0.52717700      -3.24358900      -4.32129618       0.59280961      -3.20416132
Fe       7.31773000       7.39473000       4.73130000      -1.41907300       3.06948200       1.38572900      -1.47040095       3.01638528       1.39515631
B        1.63947000       5.44017000       2.85377000      -1.37965300       1.67099600      -0.34434500      -1.51519374       1.78124179      -0.59637084
B        3.47444000       1.29905000       1.69513000      -6.04542900      -7.46227000      -1.52467000      -5.89449776      -7.16752528      -1.12200972
B        2.31673000       1.42955000       3.77944000      -1.85652800      -2.14982900       3.21956500      -1.71163162      -1.99115259       3.44316614
B        3.17088000       0.01260000       8.16689000      -2.14308300      -0.12737100      -3.63430700      -1.99088236       0.11476844      -3.57708335
B        2.48887000       2.23189000       2.44876000      -1.30373000       3.96631200      -0.94871100      -0.89810788       3.83526309      -1.29399349
B        3.55016000       3.21990000       0.17024000       2.13469500      -3.52588700       0.23974700       2.15248241      -3.43411416       0.30442390
B        3.12966000       3.07291000       4.24572000      -6.99085300       0.34377600      -0.16579100      -7.11592249       0.14027414      -0.18168905
B        2.38358000       5.95301000       6.34325000       2.25901800      -8.76611800      -6.31465800       2.17104180      -9.23714286      -6.58508835
B        4.46260000       2.62992000       4.23823000       7.08507900      -1.75449200       0.40993300       7.19354113      -1.85005480       0.45377334
B        7.51183000       3.59374000       3.85724000       1.49621300      -1.20378300       3.39561400       1.54665339      -1.08584989       3.23364018
Si       0.50050000       1.66927000       5.10425000      -1.02554400      -2.67263500       2.61432900      -0.79439345      -2.91348828       2.61260424
Si       0.41923000       4.50138000       8.15701000       0.82744200      -0.47721100      -2.57541600       1.06467303      -0.40331086      -2.84582956
Si       2.90131000       4.25049000       1.93860000       2.71957100       0.04497600      -0.88170100       2.90164252      -0.01640836      -1.08085798
Si       3.74353000       6.85388000       5.19884000      -1.20766000       1.80214700      -2.20114300      -1.06884569       2.06208510      -2.14815459
Si       3.54209000       6.47938000       8.21357000      -0.45014500      -1.75854100       4.24377300      -0.53981696      -2.00517108       4.44379246
Si       4.55252000       1.74669000       6.40118000       0.28733400       0.20348600      -1.69136000       0.24941721       0.13921910      -1.63518819
Si       5.87020000       3.30923000       5.41310000       1.93974000       0.55942400      -1.14043100       1.57008664       0.78135956      -1.07770763
Si       6.68392000       0.09389000       2.07850000      -2.78148600      -1.30329400       2.70552900      -2.46122866      -1.24052939       2.81711307
Si       7.30980000       7.36953000       0.08595000       4.18267400      -0.22507900      -1.67891000       4.11944095      -0.51205406      -1.67762474
Si       8.41387000       7.50606000       2.97540000       5.08859000       1.78741200      -0.88875800       5.03306907       1.97622277      -0.90272090
54
Lattice="8.579999685 0.0 0.0 0.0 8.579999685 0.0 0.0 0.0 8.5799996" Properties=species:S:1:pos:R:3:REF_forces:R:3:MACE_forces:R:3 config_type=Fe34B10Si10 REF_energy=-359.84864784 MACE_energy=-360.28476767554736 pbc="T T T"
Fe       0.39531000       2.37288000       0.87042000       3.27925500       2.43832800      -1.60261100       3.21380980       2.69515239      -1.77035421
Fe       0.75383000       1.65209000       3.11094000       1.30783500      -0.34615400      -0.09267000       1.28512978      -0.86594499       0.12001574
Fe       1.33201000       3.79282000       7.26231000      -2.40668100      -1.18131200       0.32245500      -2.56901518      -1.10686071       0.25162567
Fe       0.64436000       4.41396000       2.97573000       2.42004200      -2.26182600       0.38963900       2.49360066      -2.09752624       0.28696242
Fe       0.14751000       6.42079000       3.51005000      -3.07002100       1.32407200      -2.30638400      -3.09488919       1.30988504      -2.43677143