54
Lattice="8.579999685 0.0 0.0 0.0 8.579999685 0.0 0.0 0.0 8.5799996" Properties=species:S:1:pos:R:3:REF_forces:R:3:MACE_forces:R:3 config_type=Fe34B10Si10 REF_energy=-352.89092233 MACE_energy=-353.0584038007062 pbc="T T T"
Fe       1.46495000       0.71583000       1.12880000       3.73230100      -3.41607500      -3.76209700       3.70933586      -3.46853225      -3.57363787
Fe       0.56244000       2.07917000       1.96452000      -3.31290700       4.06628900       2.54508600      -3.28062031       3.95645414       2.32451525
Fe       0.86636000       2.12990000       5.00906000     -10.85567700      -2.87102900      12.20968700     -10.90297972      -2.95115516      12.22607848
Fe       0.24697000       2.61233000       7.83061000      -0.37811800      -2.03816900      -0.08744800      -0.41131489      -1.94429108       0.04874021
Fe       0.35437000       4.66395000       8.16447000      -1.30300600       1.62250000       0.84662400      -1.35348021       1.67887739       0.83555514
Fe       0.83543000       8.00840000       3.01492000       5.54921000      -2.55787300       0.52513800       5.69187085      -2.53895491       0.43336315
Fe       2.03952000       7.84431000       6.63062000      -4.28706100       1.82495200      -1.68802900      -4.10842529       1.96433177      -1.61742973
Fe       3.34318000       0.11090000       2.96052000      -0.46571400      -0.35056300       0.37864800      -0.49507864      -0.23124905       0.47257105
Fe       3.26317000       2.11539000       1.48699000      -3.47884800      -0.03222100       0.61542300      -3.39753089      -0.29234862       0.18734177
Fe       4.14313000       2.75755000       3.31065000      -0.71378000      -2.73118300       1.93004800      -0.63386820      -2.46333680       1.93944568
Fe       2.55051000       2.67374000       7.19710000      -2.55215900      -0.93589000       1.77261600      -2.27502806      -1.10937852       1.70254254
Fe       3.61327000       2.86500000       5.46497000       1.55763200       0.20514300      -0.56676300       1.48178288       0.26823767      -0.29235616
Fe       2.62400000       4.72550000       1.39174000      -1.08585200      -1.19598700       0.59645400      -1.37400637      -0.95606130       0.70160721
Fe       2.20317000       5.21693000       3.87451000      -3.92870900      -4.38103900      -4.92199500      -3.89838836      -4.33835774      -5.01271478
Fe       3.93082000       4.37819000       8.08226000       1.07616800       0.44807800      -0.99700400       0.97127437       0.28631199      -0.95481991
Fe       2.44961000       7.01753000       1.08943000       0.32119000      -1.55635000       3.27006500       0.44933893      -1.59207210       3.29656782
Fe       3.02500000       6.15780000       5.08193000      -1.08486800       1.64126100       3.95415400      -0.54704309       1.68756814       4.06877182
Fe       5.77712000       0.44616000       0.16142000      -2.43333700       0.07175000       4.13474700      -2.47817880       0.43060754       4.23200580
Fe       5.66964000       0.14892000       2.95259000      -3.67617900       1.90971100       0.12919700      -3.71254334       1.64105114       0.35737308
Fe       5.39484000       2.66317000       1.55162000       4.08183700      -3.39937100       3.88213200       4.04996713      -3.67812308       4.08341523
Fe       5.91309000       3.40423000       8.31953000       8.90196200       5.48305700      -2.72562400       8.63830498       5.38677821      -2.68526468
Fe       4.96126000       4.63305000       3.41410000      -3.60269200      -2.00302700       2.25051900      -3.73035983      -2.23080334       2.39087553
Fe       5.11347000       6.81217000       1.78872000      -0.87770500       0.06714300      -1.61156800      -0.71084163       0.06029925      -1.59433192
Fe       5.00950000       6.45991000       8.24507000      -2.30619500      -0.19808200      -1.52355700      -2.36663149       0.00626914      -1.69579657
Fe       4.64263000       7.71190000       5.75084000       2.50156800       4.23919200      -1.55456800       2.56026935       4.33353311      -1.65170204
Fe       7.32285000       0.33022000       5.03535000      -0.99210900      -0.59745100       4.73628300      -0.98979719      -0.36542159       4.78689789
Fe       6.75330000       1.32958000       7.05071000       0.53851300       2.01290400       0.36400700       0.55689932       1.84577255       0.33193171
Fe       6.82686000       2.53028000       3.66692000      -0.08907100      -0.12987400      -0.26318300      -0.03439972      -0.19649911      -0.25668377
Fe       6.83617000       5.56618000       0.59386000       1.74434500       1.47371700      -3.32847200       1.84367254       1.68845490      -3.51001944
Fe       8.27091000       4.29855000       2.87718000       3.23308900       0.33980500       1.37352500       3.22968860       0.21091302       1.33565578
Fe       6.58774000       4.90718000       4.97515000      -1.87594500       0.58060600      -0.05143700      -2.11001180       0.62878167      -0.42218182
Fe       6.86773000       6.79187000       3.27473000       1.52763600      -2.76254700       0.67579100       1.39458322      -2.47094345       0.36934883
Fe       8.09083000       8.29691000       0.84396000      -4.18921500      -1.95965200       9.56442300      -4.15044365      -2.29988722       9.66970157
Fe       6.62133000       7.67903000       7.47205000      -3.65417600       1.51975600      -3.32990400      -3.87504323       1.23275244      -3.48066394
B        3.45077000       6.81738000       6.75435000       2.04131500      -2.79808300       3.80923700       1.89878037      -2.75708134       3.95102826
B        4.67436000       1.10514000       4.73414000       0.75036200       0.95391600      -0.52852700       0.82306581       0.92424195      -0.47288326
B        6.18153000       2.20088000       5.47737000      -4.49435700      -3.20609500      -2.27763700      -4.76336876      -3.16937823      -2.52478983
B        5.08133000       4.10197000       6.35983000       0.35152900       0.25548900      -0.65354500       0.52534253       0.28363222      -0.59228421
B        4.48663000       4.29393000       1.40792000      -0.27448100       1.04603100       0.21283300      -0.24191042       1.23241566       0.16466381
B        4.96286000       5.88068000       6.14703000       0.60492000      -1.85032800       0.29314600       0.58095487      -1.94993933       0.14690805
B        8.17242000       5.65216000       5.55863000       1.00443800       0.65677900      -0.69824300       1.09582113       0.69449705      -0.34978964
B        7.98743000       6.92663000       6.60530000       5.86774900       2.58695800      -4.05103700       5.83237889       2.40901974      -3.64341792
B        7.10769000       5.72812000       6.91109000      -2.33709700      -3.34606800       1.34633400      -2.23626489      -3.43987977       1.40083050
B        7.81665000       6.81498000       8.33858000       5.04350100      -2.41043400       0.97359300       5.12926256      -2.42652951       0.63199448
Si       0.06983000       0.14925000       7.74742000       4.12649000       2.60901100      -8.87608100       4.00263684       2.63986407      -8.85031189
Si       1.93337000       2.41223000       3.74634000      10.14534600       2.98113100     -12.18526000      10.23582471       3.08804801     -12.02038843
Si       0.75978000       6.02813000       1.69309000      -4.13401100      -0.74920300       1.02787300      -4.12017102      -0.90250744       0.99695763
Si       2.22023000       5.10313000       7.16329000      -1.58663400       1.19675500      -1.89967800      -1.76231148       1.11418456      -1.93008621
Si       3.27754000       8.17117000       8.35443000       4.04667900       4.58101600      -2.24829100       3.87836345       4.55199733      -2.42614891
Si       4.48145000       2.18337000       8.34202000      -5.72220500      -5.96162700      -4.99603400      -5.48078424      -5.82135766      -5.18952421
Si       6.36439000       4.54151000       2.12641000       2.28764700      -2.33178900       1.39384200       2.53958025      -2.21358871       1.31791903
Si       4.52267000       6.51460000       3.75633000       0.42177200       5.22743800       1.25328700       0.13814263       5.34822581       1.35731014
Si       7.68278000       0.22257000       3.11016000      -0.17295300       4.89916800      -3.86478000      -0.24856529       4.82616578      -3.97881501
Si       7.35363000       3.38410000       6.13231000       4.40786200       1.27045000       2.62604800       4.43224872       1.38839103       2.96412470
54
Lattice="8.579999685 0.0 0.0 0.0 8.579999685 0.0 0.0 0.0 8.5799996" Properties=species:S:1:pos:R:3:REF_forces:R:3:MACE_forces:R:3 config_type=Fe34B10Si10 REF_energy=-354.71875992 MACE_energy=-355.15733357380736 pbc="T T T"
Fe       0.43313000       1.19321000       2.96848000       1.47291300       2.99028000       0.61180900       1.59732025       2.94883023       0.33976535
Fe       0.91365000       1.12516000       8.09995000       2.76260400      -2.00335600       1.20968300       2.51579206      -2.03459472       1.12262702
Fe       1.17142000       2.67870000       5.23446000      -1.90323000       6.04651700       0.58026800      -1.71291338       6.27866160       0.59905929
Fe       0.60772000       3.85484000       0.87278000       2.66909500       4.89444800       4.53699300       2.65287464       5.11920082       4.21329000
Fe       1.41565000       3.44858000       3.01161000      -0.29549500       2.03729500      -0.74017400      -0.23375776       1.86912255      -0.69668296
Fe       0.04226000       2.91249000       8.09734000      -3.39897200      -2.84207300      -2.69442200      -3.02721762      -2.71549670      -2.45997801
Fe       1.33282000       7.09057000       5.22634000      -0.45239700      -1.35392500       0.92503500      -0.29460135      -1.46756391       0.87736057
Fe       2.06045000       7.92051000       0.98063000      -3.11321000      -0.30108300      -2.49280600      -3.23320066      -0.49310227      -2.32186842
Fe       2.03627000       8.24295000       3.50701000      -1.42216600       4.38122900       0.88517600      -1.56753697       4.15502900       0.56628171
Fe       0.01253000       8.02686000       7.00667000       2.58679700       0.98610200     -11.80201700       2.52592303       0.78294506     -11.92131174
Fe       3.00353000       0.57289000       6.13981000      -1.03922300       0.18357300       0.93137300      -0.73769400       0.04509811       1.06243377
Fe       3.69949000       2.65196000       7.51811000       2.76433000      -4.34399200      -3.80269000       2.52835013      -4.20089540      -3.67417777
Fe       2.94478000       6.44154000       3.03987000       7.21319500      -3.66655800      -1.17614100       7.14557654      -3.47033581      -0.97455195
Fe       2.94309000       5.75189000       6.64956000      -6.24071800      -0.74678300       3.86021800      -6.52435652      -0.74305231       3.91773699
Fe       3.71160000       8.39321000       1.86324000       2.24845700      -0.43546600       0.28887200       2.39591370      -0.19761697       0.52790148
Fe       4.07810000       8.43915000       4.32840000       2.88035800       1.28304800      -0.49181300       2.94599230       1.41175068      -0.78227586
Fe       5.57499000       0.73262000       6.31633000      -3.12774100      -1.68249800      -0.98058200      -2.88464833      -1.72626770      -1.02283819
Fe       4.70712000       1.94493000       1.65492000      -2.04675700       4.97917500      -3.67899600      -2.08149908       4.88187829      -3.49833667
Fe       4.73401000       4.18392000       1.24748000       0.71501700       1.80608500      -0.06999200       0.70264279       1.96046867      -0.13523041
Fe       4.56687000       4.22266000       4.39618000       0.73801700       3.32591500      -2.10569900       0.57561975       3.44619960      -2.27238231
Fe       4.51224000       4.61167000       7.05684000       2.53211900      -0.41024200       0.53825400       2.99388146      -0.64001933       0.64214541
Fe       6.32808000       6.81945000       4.24288000      -3.20445400      -0.33519400      -1.28892300      -2.83924303      -0.24522226      -1.03203296
Fe       6.22240000       7.17309000       0.16230000      -3.30904600      -2.75215800       1.90373500      -3.48089355      -2.97557992       1.97728557
Fe       4.54224000       7.44382000       7.03838000       0.17895600      -5.02037800      -8.74618400       0.17603516      -5.31470366      -8.78953711
Fe       4.73272000       8.55832000       8.35561000      -0.10588400       8.96287400       6.54083400      -0.25946622       9.33608628       6.24957148
Fe       7.67285000       2.82429000       2.17742000      -2.12886900      -0.76272600      -2.06587500      -2.12002361      -0.73328289      -1.93445623
Fe       6.74071000       1.77406000       4.33655000       0.47479500       0.50025500      -0.42349800       0.13691027       0.48051046      -0.53058969
Fe       7.16362000       1.61896000       6.68131000       5.11373900       1.83737400       0.70818800       4.87617424       1.63888290       0.65890104
Fe       6.73653000       4.13840000       7.84564000       0.19062300       0.32905600       3.59274800       0.36813896       0.44409708       3.68526059
Fe       6.61248000       5.35948000       2.44590000       0.96755600      -0.77403900      -0.47053600       0.88332276      -0.74536214      -0.45033021
Fe       8.39074000       4.95678000       4.82580000       0.50677700       3.21370700       1.22596300       0.56956728       3.16256235       1.06181708
Fe       6.62275000       6.29700000       6.29237000       0.91106900      -0.58785400       1.74696000       0.83391336      -0.46469136       1.52417997
Fe       8.00875000       8.14674000       2.12563000      -1.25903800      -1.94608200      -3.37077000      -0.85897595      -1.95036203      -3.54052165
Fe       7.96861000       8.10559000       4.08816000       1.24434400       0.03207600       4.40361200       0.65252711      -0.03180352       4.62560798
B        3.14587000       1.61638000       2.59818000      -3.96044800      -1.57388800      -2.24367700      -4.15594165      -1.56240056      -2.19206471
B        4.07212000       1.93087000       3.78701000       0.55534200       0.12762300      -3.25123200       0.36276933       0.01871430      -3.29501351
B        2.24412000       1.90783000       4.05913000      -1.80380000      -9.70850100      -5.48536600      -1.88454631      -9.92274151      -5.60162025
B        2.90130000       3.06657000       4.45062000       2.48509300       7.60479000      -1.50334300       2.81051500       7.23072936      -1.41980112
B        2.82587000       3.80138000       5.80651000       0.21675600       2.27927400       3.92227300       0.20583540       2.17156052       3.90784981
B        2.60929000       5.04297000       1.66311000       0.12617300      -0.77075900      -0.46531300      -0.02719423      -0.95317185      -0.50519651
B        2.47198000       4.95014000       4.32601000      -0.76752800      -1.31946700       0.35153300      -0.87387233      -1.18036833       0.46527518
B        2.73354000       7.81887000       7.66829000      -1.47869400      -0.15377200       0.00458000      -1.48833093      -0.16246421       0.12694018
B        5.68071000       2.28134000       7.79544000      -0.95924500       0.41857400       1.11780500      -1.03005194       0.38062275       1.13626836
B        7.77536000       3.70665000       3.76574000      -0.44877700      -1.48394500      -0.38974400      -0.45823016      -1.38767049      -0.16736802
Si       0.79518000       0.92195000       5.77957000      -1.66645900      -4.94136200      -1.10925300      -1.63715837      -5.06522441      -0.92524909
Si       0.88055000       4.20706000       6.73551000       1.15626000       3.58432200      -0.32349000       1.13574375       3.66395306      -0.29786662
Si       1.15025000       6.44729000       2.43826000      -7.77651300      -1.83655100      -1.54918700      -7.83557121      -1.72590727      -1.77201641
Si       2.82820000       3.29548000       0.50208000      -4.05499500       1.58525200       5.32597100      -4.12130863       1.42022346       5.26104274
Si       4.14031000       6.38272000       0.30005000      -2.16949800      -2.44928300       2.57761000      -2.32109137      -2.35980011       2.44254418
Si       3.68345000       6.43010000       5.01209000       3.98893100       0.98565200      -2.13453700       3.92122202       1.22420476      -2.09029778
Si       5.73751000       0.59059000       2.53265000       5.08228400      -4.90021500       2.23852200       5.20111203      -4.95538069       2.47767451
Si       4.51163000       2.47994000       5.36819000       2.60737700      -2.86786400       7.12589500       2.77995656      -2.58099381       7.32644407
Si       6.43436000       3.75222000       5.86206000       1.38008400       0.66155200      -3.64612400       1.49564017       0.68529097      -3.76466501
Si       8.06432000       7.52318000       8.55473000       2.36409700      -3.06603600      11.34847700       2.70005510      -2.75054673      11.27299684
18
Lattice="6.5 0.0 0.0 0.0 6.5 0.0 0.0 0.0 6.5" Properties=species:S:1:pos:R:3:REF_forces:R:3:MACE_forces:R:3 config_type=Fe12B3Si3 REF_energy=-113.87843945 MACE_energy=-112.26137395671412 pbc="T T T"
Fe       5.40234000       5.43492000       1.53729000      -1.39532100       2.04028400       0.71142300      -1.16934030       2.04737551       0.80022713
Fe       2.09750000       2.10361000       0.54730000       2.35673700      -0.33103000       1.27254800       2.61137433      -0.25338183       1.45573087
Fe       2.84360000       1.73250000       3.81271000       2.28004000      -1.18251600      -0.27344700       2.21688275      -1.03445039      -0.32183523
Fe       0.77541000       4.93717000       1.04317000       1.56096300      -3.83372900       1.76362000       1.49939933      -3.62616545       1.60315798
Fe       0.07665000       3.70431000       3.74351000      -0.75952900      -0.39175400      -2.23189700      -1.00915464      -0.51428127      -2.32638448
Fe       4.77171000       3.58949000       4.78220000      -1.99219600      -4.62409700       0.48420500      -1.72530872      -4.50439499       0.38794295
Fe       4.12430000       1.49867000       1.46476000       0.29771700      -2.38794700       0.28396300       0.35781044      -2.71928752       0.18017380
Fe       0.95387000       5.17746000       5.28728000      -0.57085000      -0.50160400      -1.80733600      -0.85284158      -0.67473342      -1.35217486
Fe       1.93602000       3.09888000       2.36598000      -0.08855100       0.43128300      -0.27209000      -0.25429193       0.52764516      -0.39067879
Fe       5.69037000       1.28357000       4.20026000      -0.40866000      -0.49067900       0.18976600      -0.74949469      -0.36002154       0.24070550
Fe       1.94321000       2.86141000       5.39871000      -0.55906500       0.73218900      -1.80086600      -0.59150157       0.93799963      -2.22417146
Fe       4.33122000       5.38124000       5.25469000      -0.73272900       4.56545400       1.52017900      -0.66114348       4.44939672       1.56293684
B        0.37598000       1.64060000       1.21420000      -3.21263000       2.85095800       0.76078000      -3.12789636       2.78215636       0.99086737
B        1.88110000       4.04794000       3.96741000       2.48956600       2.45119300      -0.32261600       2.56357508       2.39207026      -0.31785354
B        3.63878000       0.94242000       5.41981000      -0.01444500       0.67937600       0.95779200       0.08376588       0.75911507       1.05581090
Si       1.19380000       0.26963000       0.19686000       0.54051800       0.24528300      -1.93219100       0.63230370       0.06819243      -1.87606696
Si       4.57825000       3.47658000       1.16117000       0.15934200       1.26766700      -0.81102600       0.23952421       1.38514967      -0.76136735
Si       1.09558000       0.76720000       2.75124000       0.04909300      -1.52033200       1.50719200      -0.06366243      -1.66238440       1.29297933
54
Lattice="8.579999685 0.0 0.0 0.0 8.579999685 0.0 0.0 0.0 8.5799996" Properties=species:S:1:pos:R:3:REF_forces:R:3:MACE_forces:R:3 config_type=Fe34B10Si10 REF_energy=-356.0869274 MACE_energy=-356.841353731057 pbc="T T T"
Fe       0.92877000       1.08311000       2.12831000      -0.53214900      -1.15432400       0.53007800      -0.68317520      -1.18652592       0.42290886
Fe       1.12794000       0.45096000       7.37327000      -2.86345100       2.18226700       1.45805300      -2.70453159       2.01760817       1.40798169
Fe       0.91289000       3.61082000       1.96264000      -1.66570100       0.50807500      -4.76654600      -1.60447490       0.22590825      -4.58925053
Fe       0.97242000       3.25012000       3.83975000      -0.85629000      -1.23507100      -0.91491200      -1.17397271      -1.09348242      -0.49701869
Fe       1.43574000       3.84332000       5.84621000      -1.94378300      -0.72872400       4.94145300      -2.06122159      -0.55654794       4.81641252
Fe       0.45897000       5.99881000       1.32384000       1.86679900       1.45939200      -0.33976700       1.72832535       1.49233691      -0.18496489
Fe       0.05714000       6.25044000       6.01250000       0.66851500      -0.88142700       1.67028200       0.60601577      -0.71663022       1.70146185
Fe       1.87526000       7.05991000       7.27744000      -5.90957000       6.81146600       5.95768600      -5.67040306       7.03997644       5.81951373
Fe       4.21220000       0.80536000       3.81626000       0.44958900      -1.97725700       0.54591300       0.54693157      -1.86441597       0.48241982
Fe       2.64196000       0.75311000       5.88605000       0.80305000      -0.92688600      -1.50973400       0.47855117      -1.07479669      -1.43865152
Fe       2.51735000       4.27963000       7.86001000      -0.17185400       2.88247300       0.00075600      -0.16577409       3.00377343       0.02116260
Fe       2.46175000       4.76211000       4.38544000       2.27245000       6.36429500      -0.60000700       2.29165570       6.40672115      -0.59005018
Fe       3.99132000       4.46692000       6.09268000      -0.21521200      -1.96607600      -0.25853400      -0.22954017      -2.17270220      -0.15249429
Fe       4.03283000       6.20484000       2.50717000       0.32509400      -1.83048700       1.07686200       0.43800178      -1.74659059       1.05160206
Fe       2.62183000       8.12097000       1.25125000      -5.45108600      -1.04608100      -0.88869000      -5.54379233      -1.13978150      -0.73026320
Fe       2.34208000       7.49949000       3.33705000      -1.45221900       0.10179900       1.96325000      -1.28926012       0.09380650       1.63507226
Fe       4.67554000       0.98699000       8.35162000       1.97529500       0.95938300       0.07305200       1.75534902       0.90794100       0.28895313
Fe       4.68615000       2.28426000       1.60336000       6.03713100       4.39249100       1.56082500       6.21908844       4.35538147       1.07493161
Fe       4.95897000       4.28949000       0.91503000       1.24258400       3.77490300      -1.07876200       0.81917635       3.59559330      -1.18126279
Fe       5.62605000       3.84953000       3.25301000      -4.56775200       3.43217100       2.09526400      -4.61557520       3.44556621       1.86884659
Fe       5.63153000       5.70233000       4.67966000       0.04558900       0.36352900      -0.74034800       0.11768324      -0.03366895      -0.59112660
Fe       5.00954000       6.14620000       6.89198000       4.51113600      -2.60361300       1.43664400       4.51634603      -2.44979596       1.36966771
Fe       5.34723000       7.32984000       0.56425000       3.41130600      -7.55812200      -7.44238600       3.36380979      -7.21599167      -7.17936384
Fe       4.57141000       8.20633000       1.67615000      -2.51651100       6.57056000       9.11650700      -2.57489837       6.14286655       8.88127990
Fe       5.67084000       7.83697000       6.02451000      -0.02983000       3.57151200       0.33120700      -0.05430371       3.64741912       0.44236815
Fe       7.65837000       1.05332000       0.64336000       1.95813700       2.93603900      -3.62028800       1.87251042       2.84878434      -3.44454722
Fe       7.23579000       1.49494000       3.62009000       0.88838800      -1.50203300       3.00240400       1.06263287      -1.52126141       3.02116088
Fe       6.96409000       1.59543000       6.70415000       0.40175100      -2.57633900      -0.54943900       0.46352227      -2.45087237      -0.50061368
Fe       6.97946000       3.05325000       2.27831000       3.01329100      -2.85779700      -7.80747400       2.60859017      -2.86494247      -7.36253714
Fe       7.05854000       3.62734000       7.13255000       0.94483300       2.42104600       2.56329500       0.98851368       2.33036331       2.36573997
Fe       7.47490000       4.49325000       0.92243000      -3.13561000       0.06366500       0.11142200      -2.83750907       0.37116525      -0.14624186
Fe       7.76499000       5.40883000       4.05655000       3.42051700      -2.49950500       1.10150300       3.55017375      -2.66737603       1.15532709
Fe       6.91686000       6.16423000       2.38917000      -4.34160700       0.52717700      -3.24358900      -4.35452496       0.82524840      -3.26655209
Fe       7.31773000       7.39473000       4.73130000      -1.41907300       3.06948200       1.38572900      -1.39284760       3.00015317       1.31959620
B        1.63947000       5.44017000       2.85377000      -1.37965300       1.67099600      -0.34434500      -1.44999864       1.69239579      -0.57955536
B        3.47444000       1.29905000       1.69513000      -6.04542900      -7.46227000      -1.52467000      -6.07348913      -6.95147628      -1.27508917
B        2.31673000       1.42955000       3.77944000      -1.85652800      -2.14982900       3.21956500      -1.78721210      -1.96287817       3.33824160
B        3.17088000       0.01260000       8.16689000      -2.14308300      -0.12737100      -3.63430700      -2.12042346       0.10916970      -3.50633699
B        2.48887000       2.23189000       2.44876000      -1.30373000       3.96631200      -0.94871100      -0.92543884       3.74117223      -1.24473667
B        3.55016000       3.21990000       0.17024000       2.13469500      -3.52588700       0.23974700       2.11994842      -3.51229521       0.38859599
B        3.12966000       3.07291000       4.24572000      -6.99085300       0.34377600      -0.16579100      -6.92684819       0.09835153      -0.18783871
B        2.38358000       5.95301000       6.34325000       2.25901800      -8.76611800      -6.31465800       2.10838086      -9.01928950      -6.39684732
B        4.46260000       2.62992000       4.23823000       7.08507900      -1.75449200       0.40993300       7.02672072      -1.84867044       0.37018549
B        7.51183000       3.59374000       3.85724000       1.49621300      -1.20378300       3.39561400       1.49253068      -1.03244231       3.19701981
Si       0.50050000       1.66927000       5.10425000      -1.02554400      -2.67263500       2.61432900      -0.80034023      -2.99734223       2.60998560
Si       0.41923000       4.50138000       8.15701000       0.82744200      -0.47721100      -2.57541600       1.11203448      -0.46006014      -2.78453854
Si       2.90131000       4.25049000       1.93860000       2.71957100       0.04497600      -0.88170100       2.68265783      -0.00107871      -1.03505293
Si       3.74353000       6.85388000       5.19884000      -1.20766000       1.80214700      -2.20114300      -1.08306200       1.92107122      -2.11025223
Si       3.54209000       6.47938000       8.21357000      -0.45014500      -1.75854100       4.24377300      -0.55414839      -2.02978793       4.43838811
Si       4.55252000       1.74669000       6.40118000       0.28733400       0.20348600      -1.69136000       0.23708646       0.16665943      -1.61832891
Si       5.87020000       3.30923000       5.41310000       1.93974000       0.55942400      -1.14043100       1.70578194       0.85843051      -1.14883482
Si       6.68392000       0.09389000       2.07850000      -2.78148600      -1.30329400       2.70552900      -2.54832310      -1.24006206       2.86981442
Si       7.30980000       7.36953000       0.08595000       4.18267400      -0.22507900      -1.67891000       4.31559057      -0.41530217      -1.78277709
Si       8.41387000       7.50606000       2.97540000       5.08859000       1.78741200      -0.88875800       4.99747945       1.88820407      -0.83351038
54
Lattice="8.579999685 0.0 0.0 0.0 8.579999685 0.0 0.0 0.0 8.5799996" Properties=species:S:1:pos:R:3:REF_forces:R:3:MACE_forces:R:3 config_type=Fe34B10Si10 REF_energy=-359.84864784 MACE_energy=-360.2602661706646 pbc="T T T"
Fe       0.39531000       2.37288000       0.87042000       3.27925500       2.43832800      -1.60261100       3.15120820       2.66257306      -1.70885861
Fe       0.75383000       1.65209000       3.11094000       1.30783500      -0.34615400      -0.09267000       1.33985026      -0.78856069       0.01157424
Fe       1.33201000       3.79282000       7.26231000      -2.40668100      -1.18131200       0.32245500      -2.48538930      -1.09648546       0.16820578
Fe       0.64436000       4.41396000       2.97573000       2.42004200      -2.26182600       0.38963900       2.48968835      -2.06650597       0.20181992
Fe       0.14751000       6.42079000       3.51005000      -3.07002100       1.32407200      -2.30638400      -3.13945500       1.32168749      -2.49832306