54
Lattice="8.579999685 0.0 0.0 0.0 8.579999685 0.0 0.0 0.0 8.5799996" Properties=species:S:1:pos:R:3:REF_forces:R:3:MACE_forces:R:3 config_type=random2 REF_energy=-363.25552073 MACE_energy=-363.8940547101809 pbc="T T T"
Fe       0.14554000       0.51178000       1.72883000       1.59155600       1.69646400       0.64593400       1.49457451       1.51361208       0.62564881
Fe       0.72405000       1.36449000       4.41023000      -1.29379600       2.22691100       1.75321500      -2.32110060       2.78588590       2.63216952
Fe       1.28013000       1.28154000       8.53445000       0.26225800      -1.72780100      -2.25359700       0.48379352      -1.27847798      -1.78771867
Fe       1.78304000       2.91528000       3.50993000      -2.09245800       1.32746400      -0.69437800      -1.78755494       1.35544667      -0.80138774
Fe       0.75698000       4.21862000       5.92458000       2.67674200       0.07621400       0.69283600       2.93401593       0.21807275       0.52082554
Fe       0.63053000       4.76090000       0.44438000       2.96454100       3.11113800      -1.75676200       2.91781630       2.88188966      -1.71536893
Fe       0.02633000       4.52370000       2.53911000       1.51365300       0.35504600       1.69572400       1.23558060       0.18691007       1.81782310
Fe       1.82831000       7.54412000       1.78795000       0.87467800      -2.32144700      -3.97784800       0.88441012      -2.22948822      -3.87243490
Fe       1.35484000       8.36643000       3.60252000      -0.64195500      -5.00077700       1.37065900      -0.35773858      -5.40388591       0.59250271
Fe       0.00278000       7.66371000       8.06149000       0.84677900       3.28625900       0.13433000       0.92620061       4.33585796       0.60989334
Fe       3.20977000       0.65911000       4.08840000       1.20299600       0.08567500       0.16844000       1.60924925       0.02180238       0.35797929
Fe       3.81428000       3.40248000       2.69765000       1.92092000      -1.15662700      -3.56356700       1.85041093      -0.84663309      -3.47388146
Fe       2.27468000       3.19194000       8.08871000       0.59526400       1.04068000       0.20830700       0.56594204       0.84794707       0.21999661
Fe       2.36527000       5.68967000       3.77721000      -1.32118300       3.62799500      -7.73735100      -1.36572639       3.47171970      -7.03045778
Fe       3.31539000       4.98429000       6.86176000      -4.76733700       1.31799100      -0.15025300      -4.35591231       1.09276695      -0.17490969
Fe       4.14047000       8.03537000       2.57836000      -0.12326500       0.71998900      -4.54677200       0.01926339       0.40431610      -4.44564904
Fe       2.33721000       7.37963000       6.97430000      -3.25408300      -0.42617300       0.11952900      -2.95750939      -0.26255629       0.09939992
Fe       5.49649000       2.81617000       0.00560000      -0.38440000       1.06482400       2.77431200      -0.68313046       1.05672616       3.04924174
Fe       4.90462000       2.19117000       4.68344000      -0.30939700      -0.22068900       0.15476200      -0.35987367      -0.29856613       0.15384366
Fe       6.05887000       2.28929000       6.72430000      -2.40764300      -1.20527600      -2.21344100      -2.12043852      -1.33270272      -2.83033859
Fe       4.96066000       5.38738000       0.05685000      -5.52595300       0.24353800      -1.43029300      -5.55811709       0.28027116      -1.28318239
Fe       4.63277000       5.58711000       3.43909000       0.15670200       0.36247400      -2.39573300       1.23340866       0.56956207      -1.86403876
Fe       5.47216000       4.57113000       5.11890000       2.10490400      -2.93581200      -1.75472200       1.80396039      -2.67324604      -1.46193985
Fe       6.30403000       5.90903000       6.68980000       0.34040700       3.61786100       1.57378600      -0.27975184       4.01477156       0.97047590
Fe       5.70388000       7.66893000       0.29664000      -0.15104200       0.56316800      -2.35128400      -0.21332873       0.47512354      -2.61402689
Fe       4.59755000       7.72233000       6.72559000       2.86127800       5.76095300       2.11819400       2.88727311       5.25552800       1.67263201
Fe       6.69102000       2.72189000       3.39445000       0.82746800       0.11261800      -1.32677500       0.72833089       0.08447644      -1.43361571
Fe       7.82489000       2.79083000       5.52653000       0.57260400      -7.67863200      -2.50501700       0.33912450      -7.52715366      -2.34035671
Fe       7.54254000       1.43077000       8.06710000       0.33636900      -1.31354300       0.06591500       0.71448904      -1.16293185       0.08344858
Fe       6.83339000       5.01847000       0.43089000       4.01851000      -1.75305200       1.07569000       4.30894449      -1.40333157       1.41567482
Fe       7.80095000       6.57346000       4.77816000       4.73736500       1.98019500       6.49954800       4.66537094       1.84327737       6.71349772
Fe       8.33789000       5.95118000       7.24348000       2.01691100      -0.30640800      -0.91254000       2.22839467      -1.47434719      -1.66005414
Fe       7.34696000       7.25711000       1.28757000       7.90645500      -4.42309700       1.23948600       7.85980717      -4.71097427       1.49585463
Fe       7.43242000       8.44439000       3.63072000      -1.39910700       0.40142200      -0.15691100      -1.39826734       0.59040054      -0.43175224
B        1.97996000       5.43579000       5.32338000      -0.33243100       1.61500000       5.95131600      -0.76062111       1.54548431       5.49567475
B        0.49461000       6.49135000       2.99766000      -0.31705400       0.59177900      -0.01053800      -0.01221165       0.61060092      -0.03529052
B        3.37504000       7.40708000       5.38089000      -5.99801200       0.47595800      -0.02338300      -5.97964401       0.80218417       0.11465622
B        4.96515000       4.52318000       6.89092000       3.31349400      -3.18234200       1.78657900       3.11242918      -3.08643110       1.39289989
B        5.58896000       5.84005000       1.76460000       0.64861700       0.75442100       1.21706300       0.33943917       0.77774975       1.32620399
B        5.83801000       7.06270000       4.90751000       3.37632700      -0.49791000      -0.21154100       3.16749814      -0.85989394      -0.14410147
B        4.61582000       6.31906000       5.77296000      -1.03151500      -4.56273800      -3.32360500      -0.75472953      -4.50003488      -3.11671685
B        5.97309000       7.45393000       2.31973000      -2.96928400       1.09257400       2.97626800      -2.97972907       1.09242970       2.67668288
B        4.33874000       7.29192000       4.22868000       1.12064900       0.81723600       0.43610100       0.76525981       0.90301538      -0.13807716
B        7.72559000       4.19378000       4.57689000      -0.45124300       3.98855700      -2.90870800      -0.45420615       3.86193132      -2.55603563
Si       2.36775000       1.39684000       1.89633000       1.21065900       0.18949800       0.44841900       1.06839650      -0.13707956       0.12832664
Si       2.71399000       1.54914000       5.95224000      -0.97150700       1.13117000       2.76442000      -0.95312440       1.04074338       2.65808404
Si       3.28955000       3.98982000       4.60004000       0.74842900      -0.88155400       4.79535100       1.05711850      -0.79293955       4.85985345
Si       2.89881000       5.25907000       1.19827000      -0.23285300      -0.18968200       0.16399200      -0.21168855      -0.28564651       0.05865533
Si       3.70049000       7.63232000       0.08133000      -4.14839400      -0.17279700       2.68798100      -4.19072361      -0.11811908       2.68223458
Si       6.67656000       0.73535000       1.44116000      -3.60544400       3.39071100       0.89862900      -3.53590269       3.29750017       1.22843138
Si       7.67019000       0.53497000       5.89855000      -0.08039200      -1.77360700       0.76356800      -0.15884568      -1.45644561       0.85119750
Si       8.29725000       2.99648000       0.96254000      -1.13453400      -3.27728700       0.33879000      -1.11131588      -3.15797718       0.21093929
Si       7.40923000       4.02958000       6.96965000      -1.81600400       0.96913600       4.48163600      -1.79006768       0.82185158       4.37925512
Si       7.01249000       5.74161000       3.32202000      -3.98624800      -2.98766700      -5.79576500      -4.54924247      -3.04099247      -5.88266787
54
Lattice="8.579999685 0.0 0.0 0.0 8.579999685 0.0 0.0 0.0 8.5799996" Properties=species:S:1:pos:R:3:REF_forces:R:3:MACE_forces:R:3 config_type=random2 REF_energy=-358.18453515 MACE_energy=-358.47751633029645 pbc="T T T"
Fe       0.67784000       1.42600000       4.73270000       0.73286300      -0.83759600      -0.86363300       0.85868614      -0.53600948      -0.99596930
Fe       1.80600000       0.78628000       7.98152000      -0.21501700       4.54628000       1.47421800      -0.18312583       5.66957579       1.59919893
Fe       1.72820000       3.31227000       3.62866000       1.47689300      -1.16474500       0.84209400       1.66275836      -1.45253160       0.92828498
Fe       1.26949000       3.60873000       6.28045000      -2.30845800       2.47241900      -0.02322800      -2.18465620       2.46771509       0.14073321
Fe       0.99472000       5.31230000       0.60430000      -2.51259200      -1.02653900      -1.17393400      -2.22429450      -1.26346704      -1.33518104
Fe       0.20061000       4.55674000       2.88710000      -1.84897700      -0.58032100      -0.41954500      -1.84838392      -0.23297572      -0.32704128
Fe       0.17403000       7.49971000       0.22557000      -1.18320700      -1.63527800      -1.18960000      -1.28890852      -1.99805722      -1.23590257
Fe       2.11762000       7.20795000       1.12963000      -8.60668700      -2.28539000       6.55154800      -8.49156356      -2.30357536       6.67399170
Fe       1.53173000       7.83266000       3.80603000      -1.65905400      -0.11404600      -0.89610500      -1.35461024      -0.11472531      -1.02119826
Fe       1.74486000       7.54079000       7.38183000      -0.77016800      -2.84296400      -4.33487700      -0.47115493      -3.57994690      -4.92562087
Fe       3.56186000       0.47927000       3.91303000      -0.80393000       0.09573100       0.48864500      -1.00062802       0.00710697       0.60452590
Fe       2.69544000       3.32913000       8.35331000      -0.91529500      -1.37466700      -1.27096300      -0.93319583      -1.39057383      -1.16102558
Fe       2.50726000       5.55253000       3.00891000      -3.70845900       1.84549900       7.06229400      -3.53414412       1.64398034       6.84600782
Fe       2.66303000       5.37632000       6.86323000       1.34009500       0.58131700      -1.07274400       1.19673980       0.84551771      -1.01808557
Fe       3.68938000       7.29321000       2.47293000       0.29505500       3.79600900       1.74225700       0.59264903       3.75459924       1.36055861
Fe       5.40299000       0.02262000       0.28245000       1.09754400       1.37381700      -0.56286500       1.12684397       1.12175144      -0.94183036
Fe       4.76280000       2.19193000       4.29489000       2.19427600      -1.08862000       1.63743200       2.13931388      -1.09953266       1.76557111
Fe       5.87698000       1.49013000       6.50500000      -2.18598600       1.19192000       1.46600100      -2.18291162       1.14863159       1.54795476
Fe       4.48055000       3.07540000       2.45780000      -2.84622400       3.45030800      -0.21057900      -2.99364480       3.58846839      -0.43013062
Fe       4.83688000       2.94002000       8.43684000       0.49024200       0.44080300      -1.29325900       0.67190949       0.75711686      -1.36197612
Fe       4.30622000       5.52054000       0.10302000       2.65356400      -0.61538500      -1.14058600       2.27941880      -0.76922248      -1.34051585
Fe       4.85577000       5.68427000       3.22538000     -13.58892600      -0.68123400       5.77741200     -13.72565865      -0.60587949       6.08785600
Fe       5.84993000       6.63152000       7.18110000       2.03459500      -3.33577600       1.78593900       2.54669170      -4.21788197       1.95399389
Fe       4.72930000       7.89323000       6.40878000      -2.94043200       3.01534400      -1.87259700      -3.68703559       3.72538192      -2.34508030
Fe       8.57594000       0.14462000       1.86915000       1.84558700       1.97931100       0.93135500       1.97032674       1.90703465       0.70670380
Fe       7.40625000       0.48915000       3.55738000      -1.33936600      -1.43260200       0.55771200      -1.76101017      -1.67308639       0.94384482
Fe       7.75862000       0.67902000       8.04704000      -0.77003900       0.72030400      -0.65512800      -0.97069970       0.75001272      -0.42899089
Fe       7.46465000       2.57205000       3.33742000      -0.45460800       2.06343200      -2.84623400      -0.35812177       2.07341891      -2.71998890
Fe       7.51645000       2.84284000       5.46098000       2.51807600      -2.81291200       2.63874200       2.80104858      -3.19342758       2.53089282
Fe       7.11718000       5.17386000       0.62422000       0.27145600      -0.82583000       2.77819000       0.26954210      -1.00354661       2.64052870
Fe       6.51145000       4.47616000       5.19496000      -3.21759500       3.62253300      -0.00675500      -3.75499623       4.03383902      -0.00185583
Fe       6.97347000       7.04758000       1.38649000       0.48266800       2.22145100      -0.50307700      -0.01390881       3.05581472      -0.22628029
Fe       8.10334000       7.04288000       4.95886000      -1.48616400      -0.51613500      -4.54135800      -1.70516015      -0.49552113      -4.66695918
Fe       8.05258000       6.29152000       6.99912000      -5.65637200      -2.13614500       5.60244700      -5.44863943      -2.17033038       5.63650836
B        0.04547000       6.36131000       2.63966000       0.55615900       2.89343100      -0.65487300       0.86836957       2.74194927      -0.76636971
B        0.78760000       6.41749000       6.11718000       8.96866000      -1.86484800      -4.88573100       8.85218134      -1.75967096      -4.82091482
B        3.88199000       6.18665000       5.24393000       2.40535200      -4.52291800       1.86480100       2.39166735      -4.50437867       1.58561399
B        2.47083000       6.65446000       5.06009000      -4.16668300       1.63659100       0.72991100      -3.79310051       1.59035245       0.70493507
B        5.17040000       4.43420000       7.03607000      -0.49407400       0.60408200      -0.07071100      -0.57676286       0.71632442       0.10057838
B        4.98477000       7.02089000       1.26112000       2.69184300      -1.01715200      -0.23867300       2.82379365      -0.79903074       0.18649596
B        6.14089000       6.45683000       4.80405000      -1.30138100       0.95082900       0.28639900      -1.14848127       0.94759789       0.28511963
B        6.13162000       8.43071000       2.35098000      -2.35722900       0.80301000      -1.64851700      -2.11329615       0.60957385      -1.35182538
B        4.56795000       7.37597000       4.51000000       1.08899100       1.91413600      -2.46424300       0.93748148       1.65118532      -2.50293463
B        8.43856000       4.83510000       4.92882000       1.36608400      -0.27092900       0.38228600       1.14416233      -0.22997155       0.52093520
Si       2.33663000       0.88304000       1.86191000       0.20378000       0.67375300       0.48954000       0.20168576       0.67390419       0.52742903
Si       2.47060000       2.01787000       5.82671000       3.44729400      -2.77017900       0.28477400       3.27869163      -2.86908803       0.20587090
Si       3.99754000       3.90209000       5.28043000      -0.52173300       2.24871100       0.56615500      -0.35886944       2.24396659       0.38467555
Si       2.88628000       4.75003000       1.35877000       1.35107300      -4.46219800      -1.82910400       1.27987116      -4.11949895      -1.43253712
Si       3.44659000       7.61488000       0.02362000       9.22872600       3.26579400      -6.84666600       8.69183970       3.10986630      -6.54846314
Si       5.84087000       1.88518000       1.47006000       1.98939500      -2.63771400       1.14825400       1.79818074      -2.65687625       1.20978062
Si       7.50409000       0.39762000       5.72805000       0.28887500      -1.01436500       1.80494100       0.16838119      -1.03500457       1.61363026
Si       7.89236000       2.62826000       0.60996000       1.84518100       0.08413200       2.31178300       2.33966918       0.09764462       2.13580822
Si       7.19466000       4.02992000       7.62402000      -0.41245200      -1.87945400      -6.47557700      -0.33472553      -1.78276192      -6.42482871
Si       6.49362000       5.60380000       2.83650000      15.40678400      -2.74500600      -1.21396800      15.54978470      -3.07575747      -1.09652189
54
Lattice="8.579999685 0.0 0.0 0.0 8.579999685 0.0 0.0 0.0 8.5799996" Properties=species:S:1:pos:R:3:REF_forces:R:3:MACE_forces:R:3 config_type=random2 REF_energy=-360.24557691 MACE_energy=-360.6639076124666 pbc="T T T"
Fe       0.15602000       0.52795000       0.11788000       1.50118900       2.12647900      -0.69082500       1.03701404       2.30013181      -0.90137993
Fe       1.70518000       0.91529000       6.12502000      -0.09988400      -0.42418000       1.68375300       0.00525555      -0.22280641       1.80892579
Fe       1.54966000       2.36852000       1.06669000      -5.85953100      -4.36721300       0.56745300      -6.99247481      -5.19089970       1.00566932
Fe       1.02665000       1.75632000       4.18103000      -1.38605400      -0.36095700      -0.43690800      -2.00359785       0.14866819      -0.10001478
Fe       1.06359000       3.94918000       2.34805000       0.69749000      -0.85774700       5.96520700       0.53113384      -0.23704970       6.29136921
Fe       1.28487000       3.20120000       7.58043000       3.39307500      -0.26984800       2.42083000       2.35134958      -1.28868791       0.39652933
Fe       1.14161000       6.71049000       0.83829000      -0.40864800      -2.86541500      -0.56258600      -0.03191845      -2.55814234      -0.56287201
Fe       0.40301000       6.75556000       3.85346000      -3.54681400      -2.71605200       0.53524600      -3.46597634      -2.36190579       0.73113577
Fe       2.42406000       1.07205000       2.77097000       0.17396900      -0.59415600       0.13555400       0.85794095      -0.61422280      -0.32864871
Fe       3.41034000       2.05710000       0.70145000       6.42881300      -5.02873900      -4.48941300       7.20270968      -4.63542699      -4.35610050
Fe       2.29718000       4.17321000       0.18921000       8.27262100       4.83321100       0.27939000       9.08725856       6.08989713       1.27154627
Fe       3.97525000       3.01933000       3.45467000      -3.56965100      -1.67327500       4.17175000      -3.73260529      -1.76207716       4.02627505
Fe       2.31555000       3.12797000       5.45181000      -0.56424300       1.47291700      -0.72207500      -0.51200717       1.50177005      -0.94702664
Fe       4.14051000       4.67154000       7.32496000      -1.85033600      -2.49705600      -3.03953400      -1.91202586      -2.25103366      -3.17963258
Fe       3.30273000       6.05901000       1.51938000       1.42520300      -0.93348100       5.20094300       1.31918633      -1.30395795       4.87699454
Fe       2.31083000       5.81669000       6.24071000      -1.65695700      -1.97484000      -1.83228700      -1.91276275      -1.85903663      -1.52331945
Fe       4.23546000       8.36043000       1.12111000      -3.48153700      -2.75255200      -1.29453300      -3.24866567      -2.86768531      -1.37640366
Fe       3.23987000       7.53891000       5.51734000      -0.21665400       2.51274300      -1.38503500      -0.22142520       2.04914347      -1.06245414
Fe       5.12946000       0.94550000       4.94399000      -0.11299800       0.77990500       2.32699000      -0.24294011       0.71931998       2.44793125
Fe       5.13589000       1.13489000       7.61232000      -2.35192000      -2.47185700      -1.54459000      -1.98180471      -2.39774564      -1.40900763
Fe       5.77866000       4.23588000       4.79030000      -1.29299100      -0.33304200      -0.54889500      -1.45973176      -0.43683286      -0.58854599
Fe       5.21312000       5.43128000       0.36944000       0.48480600      -1.77457800       2.45456000       0.03106566      -2.13892016       2.29867497
Fe       6.29545000       5.29844000       6.90813000       0.27479600       0.56550300      -0.15217800       0.38267903       1.00908519       0.07534657
Fe       6.35692000       7.06671000       0.82505000      -3.36239600      -4.01210700       4.38604600      -2.96200356      -3.94761351       4.35258575
Fe       5.03038000       6.83997000       3.89378000      -5.77025900      -0.16605500       1.32235200      -6.40838738       0.29047226       1.27905400
Fe       4.78652000       7.09563000       7.12705000       1.46620700       1.40382700      -0.48359700       1.53496087       1.42334696      -0.44103572
Fe       6.27758000       8.37043000       3.24816000       2.63331000      -0.39926000      -1.09188300       2.33444186      -0.42258685      -1.26703575
Fe       6.66778000       2.25230000       0.37441000       0.46215200       5.56438900      -2.13561400       0.59294457       5.46885275      -2.41853985
Fe       7.36634000       1.80676000       3.25099000      -1.00720600       0.66121700       0.12043400      -0.97663514       0.53595246      -0.01182071
Fe       7.20940000       4.10018000       1.95385000       2.57566800      -1.48999600      -0.86593000       2.73058304      -1.29435768      -0.70140729
Fe       7.94471000       3.72778000       4.77598000       1.55881000      -0.58188700      -6.79754900       1.65441787      -0.68050342      -6.76946329
Fe       6.75768000       6.07296000       3.66358000       3.93722500      -2.42586800      -1.10133600       4.88329222      -2.83404214      -1.35576243
Fe       8.21458000       8.08402000       1.87626000      -0.44151800      -0.26603100       3.30322800      -0.44034757      -0.51078477       4.05566444
Fe       7.36868000       8.08437000       5.29726000       0.43877100       0.17228300       0.46133200       0.52591449       0.27542002       0.46891893
B        0.46931000       2.86958000       6.22296000      -3.80288900      -1.09387000      -7.26709800      -3.24208664      -0.76503148      -6.74232049
B        0.79690000       4.64043000       0.78277000      -5.70109500       2.77781200      -1.37694100      -5.51771588       2.48519778      -1.65259594
B        0.73908000       6.06271000       7.33363000       1.54267100       0.77045400       1.64299100       1.76982746       0.69495273       1.71833373
B        1.70695000       8.30838000       1.61351000       0.69871300       2.04304800      -1.19793700       0.73667354       1.91896641      -1.05201252
B        1.06367000       7.86886000       5.17764000       0.71186900       0.56033400       0.46457700       0.71484393       0.30867356       0.46742659
B        3.05807000       3.31560000       1.75331000       0.60245100       5.37233400       4.97576700       0.61569105       4.99343037       4.59865579
B        4.11376000       3.15831000       5.72174000       0.08260300      -0.21738500      -1.78505000       0.14284983      -0.14661638      -1.49770420
B        8.14039000       2.18508000       1.52896000       1.19434400      -0.12824400       0.69320900       1.54887534       0.13639794       0.64187468
B        8.39030000       2.05308000       7.53614000      -1.77848500      -1.83154800       0.20619400      -1.91128233      -1.36913116       0.70582553
B        8.30153000       5.45928000       1.83309000       1.20856300       4.13672900       0.40624600       1.06248267       3.86795569       0.28846089
Si       3.00019000       6.35380000       8.16132000      -1.19834300       2.89758700      -2.26894600      -1.31861742       2.65467711      -2.05164438
Si       2.24659000       7.26192000       3.26474000       4.14484200       1.08172900      -0.14133900       3.93959251       0.92194809      -0.24557635
Si       6.17884000       0.45233000       0.83743000       1.44634700      -0.49623800       2.03270200       1.34376665      -0.18612712       1.75350209
Si       4.64336000       1.00099000       2.78500000      -0.82361900       2.27383700       0.17243100      -0.86315682       2.38675491       0.38776544
Si       5.30071000       3.73874000       2.23321000      -1.13801900       1.40766600      -1.97244000      -1.28557538       1.21949912      -1.88285892
Si       5.60784000       3.05108000       6.86204000       1.78633600       1.16462800       1.21292600       1.85562072       0.89633094       1.21486914
Si       7.37786000       2.01899000       5.63982000      -1.85188300      -4.99033500       0.63073900      -2.06958048      -5.09494608       0.48062166
Si       7.84836000       3.98525000       7.99758000      -1.73886300       0.76335000       2.02910200      -1.82608365       0.52870470       1.84832550
Si       8.18070000       5.21779000       5.96080000       2.99103300       5.24835700       0.50260400       2.72017951       5.16806546       0.38771613
Si       7.85457000       7.16215000       8.23590000       2.87892000      -0.59652700      -5.12003700       3.02685691      -0.61544351      -5.45481453
54
Lattice="8.579999685 0.0 0.0 0.0 8.579999685 0.0 0.0 0.0 8.5799996" Properties=species:S:1:pos:R:3:REF_forces:R:3:MACE_forces:R:3 config_type=random2 REF_energy=-365.22575864 MACE_energy=-365.9117672263675 pbc="T T T"
Fe       0.20349000       0.43692000       2.30233000      -1.19759000      -0.05132300      -0.31775900      -1.02978103      -0.32543994      -0.35876435
Fe       0.51917000       1.17401000       4.74302000       2.78563200      -1.27976500      -1.64547000       3.07860090      -1.65191194      -1.72936771
Fe       1.38751000       3.23006000       6.69712000      -2.06380500      -0.45204200      -2.64816400      -2.07248855      -0.37918920      -2.66324287
Fe       1.21974000       4.87952000       0.40100000      -2.47724400       1.11533000      -0.99296900      -2.64985785       1.12885394      -0.67368959
Fe       1.97573000       5.54310000       2.88466000       6.09622800      -0.22804000       0.22274800       6.59245859       0.18392852      -0.41333973
Fe       0.24724000       4.67275000       3.31002000       1.25657100      -3.26273900       0.49527800       1.69378490      -3.89389315       0.89335057
Fe       2.05879000       7.00765000       1.04459000      -2.72119300      -0.03775000      -3.04789100      -2.31173967      -0.22098662      -3.10929358
Fe       1.63798000       7.40648000       3.82765000       2.29920100       2.88972100       2.98139100       2.02249651       2.82827197       2.72069756
Fe       1.09226000       7.58547000       7.07334000       0.04029200       2.73525000       0.31147100       0.15137510       2.58767946       0.23397272
Fe       3.60090000       0.57134000       3.89250000       0.69494200       2.40229900      -4.05887500       0.00914798       3.86296902      -6.05518868
Fe       2.65991000       1.09437000       7.86419000      -1.14458000      -0.85522600       2.26630900      -0.99902165      -1.01446559       2.10334134
Fe       2.24446000       3.37294000       4.01156000       1.54847400      -3.07575300       1.59871500       1.39926877      -3.10695789       1.68498046
Fe       2.60814000       3.36778000       8.29224000       2.86850300      -0.48023700       1.04871300       3.11220242      -0.61991567       0.90736679
Fe       3.82657000       5.53146000       0.39663000      -0.49871600      -1.08215200       0.37044000      -0.80657328      -1.00235400       0.74130755
Fe       2.40237000       5.93309000       6.71186000       1.66007800      -1.91531100      -0.54914500       1.45913094      -1.77718638      -0.44969706
Fe       3.83124000       7.22984000       2.26002000       1.16293400      -0.34641600       3.49778100       1.39857544      -0.47846722       3.12275327
Fe       3.99920000       8.45773000       5.51692000       1.28512400      -7.68078000       2.95796600       1.97153028      -8.52826664       5.49331149
Fe       5.22444000       0.95706000       0.14198000      -0.41599900      -1.79364900       3.26990900      -0.67171926      -1.63923114       3.38528210
Fe       5.45558000       1.13972000       6.57432000       2.20837100       0.47887400      -0.56599300       2.52110521       0.40851624      -0.68146298
Fe       5.26466000       2.27135000       4.41008000      -0.17510500       1.86037900      -0.00881300      -0.41752449       1.92805179       0.00828540
Fe       4.35232000       3.74890000       2.00519000       5.41658000      -2.25214300      -0.60695800       5.14207321      -3.07348891      -0.93682182
Fe       4.94500000       3.07245000       8.16952000       0.69532600       1.35147200      -0.28201500       0.52190847       1.41098639      -0.16521292
Fe       4.72549000       5.27621000       3.27777000       2.48098000       1.19615400       0.41763500       2.45354845       1.86725777       0.73234152
Fe       5.66786000       6.71115000       7.78034000       3.01066600       0.48468200      -0.64974500       3.26948296       0.37866170      -0.49492749