54
Lattice="8.579999685 0.0 0.0 0.0 8.579999685 0.0 0.0 0.0 8.5799996" Properties=species:S:1:pos:R:3:REF_forces:R:3:MACE_forces:R:3 config_type=random2 REF_energy=-363.25552073 MACE_energy=-360.1570238525659 pbc="T T T"
Fe       0.14554000       0.51178000       1.72883000       1.59155600       1.69646400       0.64593400       1.75241855       1.58530435       0.50157048
Fe       0.72405000       1.36449000       4.41023000      -1.29379600       2.22691100       1.75321500      -1.70450888       2.33019082       2.33461043
Fe       1.28013000       1.28154000       8.53445000       0.26225800      -1.72780100      -2.25359700       0.76794356      -1.01131688      -1.90096513
Fe       1.78304000       2.91528000       3.50993000      -2.09245800       1.32746400      -0.69437800      -1.90527427       1.00642370      -0.87460931
Fe       0.75698000       4.21862000       5.92458000       2.67674200       0.07621400       0.69283600       2.62187064       0.06828783       0.51567706
Fe       0.63053000       4.76090000       0.44438000       2.96454100       3.11113800      -1.75676200       2.81484973       2.70713011      -1.98045389
Fe       0.02633000       4.52370000       2.53911000       1.51365300       0.35504600       1.69572400       1.18190281       0.04365382       2.26778005
Fe       1.82831000       7.54412000       1.78795000       0.87467800      -2.32144700      -3.97784800       1.10941752      -2.33193598      -3.77121578
Fe       1.35484000       8.36643000       3.60252000      -0.64195500      -5.00077700       1.37065900      -0.58445675      -4.71326958       0.97484353
Fe       0.00278000       7.66371000       8.06149000       0.84677900       3.28625900       0.13433000       1.01198803       3.71446402       0.12228797
Fe       3.20977000       0.65911000       4.08840000       1.20299600       0.08567500       0.16844000       1.71051793       0.32683758       0.32550231
Fe       3.81428000       3.40248000       2.69765000       1.92092000      -1.15662700      -3.56356700       1.68434827      -0.95613160      -3.33493618
Fe       2.27468000       3.19194000       8.08871000       0.59526400       1.04068000       0.20830700       0.71231628       0.76438329      -0.04902191
Fe       2.36527000       5.68967000       3.77721000      -1.32118300       3.62799500      -7.73735100      -0.85462248       3.52220973      -7.63948741
Fe       3.31539000       4.98429000       6.86176000      -4.76733700       1.31799100      -0.15025300      -4.77228832       1.36264907      -0.29155717
Fe       4.14047000       8.03537000       2.57836000      -0.12326500       0.71998900      -4.54677200      -0.42533944       0.25479149      -4.31259813
Fe       2.33721000       7.37963000       6.97430000      -3.25408300      -0.42617300       0.11952900      -2.98375169      -0.14189728      -0.08509197
Fe       5.49649000       2.81617000       0.00560000      -0.38440000       1.06482400       2.77431200      -0.76404270       0.84086027       2.97896759
Fe       4.90462000       2.19117000       4.68344000      -0.30939700      -0.22068900       0.15476200      -0.44977031      -0.31291591       0.23121585
Fe       6.05887000       2.28929000       6.72430000      -2.40764300      -1.20527600      -2.21344100      -2.45487006      -1.30025753      -2.74623901
Fe       4.96066000       5.38738000       0.05685000      -5.52595300       0.24353800      -1.43029300      -5.79658221       0.42056302      -1.06106171
Fe       4.63277000       5.58711000       3.43909000       0.15670200       0.36247400      -2.39573300       0.61113809       0.54115608      -1.87617999
Fe       5.47216000       4.57113000       5.11890000       2.10490400      -2.93581200      -1.75472200       2.23785424      -2.46655629      -1.94156354
Fe       6.30403000       5.90903000       6.68980000       0.34040700       3.61786100       1.57378600      -0.22718806       3.66883180       0.65513547
Fe       5.70388000       7.66893000       0.29664000      -0.15104200       0.56316800      -2.35128400      -0.08597403       0.77964098      -2.70354807
Fe       4.59755000       7.72233000       6.72559000       2.86127800       5.76095300       2.11819400       3.14839740       5.53531597       1.94523832
Fe       6.69102000       2.72189000       3.39445000       0.82746800       0.11261800      -1.32677500       0.69855740       0.03151621      -1.41311957
Fe       7.82489000       2.79083000       5.52653000       0.57260400      -7.67863200      -2.50501700       0.55743568      -7.52931381      -2.40603234
Fe       7.54254000       1.43077000       8.06710000       0.33636900      -1.31354300       0.06591500       0.64815439      -1.04144681       0.23439656
Fe       6.83339000       5.01847000       0.43089000       4.01851000      -1.75305200       1.07569000       4.36425427      -1.43090164       1.30042559
Fe       7.80095000       6.57346000       4.77816000       4.73736500       1.98019500       6.49954800       4.73082767       1.95029456       6.60635406
Fe       8.33789000       5.95118000       7.24348000       2.01691100      -0.30640800      -0.91254000       2.31166866      -0.46556022      -1.07157215
Fe       7.34696000       7.25711000       1.28757000       7.90645500      -4.42309700       1.23948600       7.65565232      -4.68613787       1.42334506
Fe       7.43242000       8.44439000       3.63072000      -1.39910700       0.40142200      -0.15691100      -1.34220796       0.46303756      -0.12310630
B        1.97996000       5.43579000       5.32338000      -0.33243100       1.61500000       5.95131600      -0.68204022       1.33409503       5.89833894
B        0.49461000       6.49135000       2.99766000      -0.31705400       0.59177900      -0.01053800      -0.35494350       0.43848461       0.17296133
B        3.37504000       7.40708000       5.38089000      -5.99801200       0.47595800      -0.02338300      -5.66411642       0.94442516       0.43429476
B        4.96515000       4.52318000       6.89092000       3.31349400      -3.18234200       1.78657900       3.14711335      -3.10863071       1.39770327
B        5.58896000       5.84005000       1.76460000       0.64861700       0.75442100       1.21706300       0.62051237       0.72420912       0.92688723
B        5.83801000       7.06270000       4.90751000       3.37632700      -0.49791000      -0.21154100       3.19536009      -0.30555069       0.09247721
B        4.61582000       6.31906000       5.77296000      -1.03151500      -4.56273800      -3.32360500      -1.04130591      -5.02550237      -2.70586272
B        5.97309000       7.45393000       2.31973000      -2.96928400       1.09257400       2.97626800      -2.85095627       0.92580857       3.24376905
B        4.33874000       7.29192000       4.22868000       1.12064900       0.81723600       0.43610100       0.67209927       0.83250139      -0.59951196
B        7.72559000       4.19378000       4.57689000      -0.45124300       3.98855700      -2.90870800      -0.46452784       3.90082188      -2.78305603
Si       2.36775000       1.39684000       1.89633000       1.21065900       0.18949800       0.44841900       1.26441040      -0.10520459       0.45401867
Si       2.71399000       1.54914000       5.95224000      -0.97150700       1.13117000       2.76442000      -0.79814129       0.85422695       2.54085953
Si       3.28955000       3.98982000       4.60004000       0.74842900      -0.88155400       4.79535100       1.07088320      -0.97643275       4.33494098
Si       2.89881000       5.25907000       1.19827000      -0.23285300      -0.18968200       0.16399200      -0.38484311      -0.33444503       0.22652220
Si       3.70049000       7.63232000       0.08133000      -4.14839400      -0.17279700       2.68798100      -4.29163529       0.02218394       2.70109454
Si       6.67656000       0.73535000       1.44116000      -3.60544400       3.39071100       0.89862900      -3.69181860       3.53022662       1.11270762
Si       7.67019000       0.53497000       5.89855000      -0.08039200      -1.77360700       0.76356800      -0.28296699      -1.61753778       0.53567296
Si       8.29725000       2.99648000       0.96254000      -1.13453400      -3.27728700       0.33879000      -1.48806191      -3.28646309       0.39334245
Si       7.40923000       4.02958000       6.96965000      -1.81600400       0.96913600       4.48163600      -1.58427535       0.54670476       4.68491648
Si       7.01249000       5.74161000       3.32202000      -3.98624800      -2.98766700      -5.79576500      -4.37138223      -2.82382189      -5.89706727
54
Lattice="8.579999685 0.0 0.0 0.0 8.579999685 0.0 0.0 0.0 8.5799996" Properties=species:S:1:pos:R:3:REF_forces:R:3:MACE_forces:R:3 config_type=random2 REF_energy=-358.18453515 MACE_energy=-355.0910438292315 pbc="T T T"
Fe       0.67784000       1.42600000       4.73270000       0.73286300      -0.83759600      -0.86363300       0.73987828      -0.43958300      -1.09924196
Fe       1.80600000       0.78628000       7.98152000      -0.21501700       4.54628000       1.47421800      -0.18016664       4.69892995       1.46257544
Fe       1.72820000       3.31227000       3.62866000       1.47689300      -1.16474500       0.84209400       1.83876529      -1.37895245       0.87469142
Fe       1.26949000       3.60873000       6.28045000      -2.30845800       2.47241900      -0.02322800      -2.71338713       2.63549266       0.29518211
Fe       0.99472000       5.31230000       0.60430000      -2.51259200      -1.02653900      -1.17393400      -2.48449915      -1.04291082      -1.42062983
Fe       0.20061000       4.55674000       2.88710000      -1.84897700      -0.58032100      -0.41954500      -1.81444815      -0.61642801      -0.46734216
Fe       0.17403000       7.49971000       0.22557000      -1.18320700      -1.63527800      -1.18960000      -1.25702646      -1.72568403      -1.05721964
Fe       2.11762000       7.20795000       1.12963000      -8.60668700      -2.28539000       6.55154800      -8.71604207      -2.41529223       6.88100549
Fe       1.53173000       7.83266000       3.80603000      -1.65905400      -0.11404600      -0.89610500      -1.43324897      -0.02481966      -0.82323884
Fe       1.74486000       7.54079000       7.38183000      -0.77016800      -2.84296400      -4.33487700      -0.38336568      -3.07922262      -4.69940821
Fe       3.56186000       0.47927000       3.91303000      -0.80393000       0.09573100       0.48864500      -0.65643391       0.47437027       0.86294520
Fe       2.69544000       3.32913000       8.35331000      -0.91529500      -1.37466700      -1.27096300      -1.03744280      -1.13294432      -1.53832614
Fe       2.50726000       5.55253000       3.00891000      -3.70845900       1.84549900       7.06229400      -3.60496095       1.58728826       7.11233761
Fe       2.66303000       5.37632000       6.86323000       1.34009500       0.58131700      -1.07274400       1.05374851       0.50070229      -0.79894003
Fe       3.68938000       7.29321000       2.47293000       0.29505500       3.79600900       1.74225700       0.34728775       3.84153026       1.84781052
Fe       5.40299000       0.02262000       0.28245000       1.09754400       1.37381700      -0.56286500       1.10362463       1.41729758      -0.82233071
Fe       4.76280000       2.19193000       4.29489000       2.19427600      -1.08862000       1.63743200       2.12386765      -1.06273778       1.20616069
Fe       5.87698000       1.49013000       6.50500000      -2.18598600       1.19192000       1.46600100      -2.28568944       1.33369676       1.46689868
Fe       4.48055000       3.07540000       2.45780000      -2.84622400       3.45030800      -0.21057900      -2.55533417       3.20005939      -0.18411632
Fe       4.83688000       2.94002000       8.43684000       0.49024200       0.44080300      -1.29325900       0.54071019       0.57434361      -1.23179329
Fe       4.30622000       5.52054000       0.10302000       2.65356400      -0.61538500      -1.14058600       2.44411164      -0.65613904      -1.44318195
Fe       4.85577000       5.68427000       3.22538000     -13.58892600      -0.68123400       5.77741200     -13.34276694      -1.26652324       5.24072987
Fe       5.84993000       6.63152000       7.18110000       2.03459500      -3.33577600       1.78593900       1.95544172      -3.48554616       1.50150055
Fe       4.72930000       7.89323000       6.40878000      -2.94043200       3.01534400      -1.87259700      -2.95738361       3.20101688      -1.71271145
Fe       8.57594000       0.14462000       1.86915000       1.84558700       1.97931100       0.93135500       1.48865100       1.96646081       0.84674531
Fe       7.40625000       0.48915000       3.55738000      -1.33936600      -1.43260200       0.55771200      -1.36291373      -1.36113173       0.58808187
Fe       7.75862000       0.67902000       8.04704000      -0.77003900       0.72030400      -0.65512800      -0.86606769       0.70612863      -0.63809993
Fe       7.46465000       2.57205000       3.33742000      -0.45460800       2.06343200      -2.84623400      -0.55950806       1.80166428      -2.31954229
Fe       7.51645000       2.84284000       5.46098000       2.51807600      -2.81291200       2.63874200       2.34725421      -2.75717927       2.23390363
Fe       7.11718000       5.17386000       0.62422000       0.27145600      -0.82583000       2.77819000       0.04006824      -0.93514702       2.84321200
Fe       6.51145000       4.47616000       5.19496000      -3.21759500       3.62253300      -0.00675500      -3.43005794       3.32313415       0.13649646
Fe       6.97347000       7.04758000       1.38649000       0.48266800       2.22145100      -0.50307700       0.50296249       2.85227369      -0.58134769
Fe       8.10334000       7.04288000       4.95886000      -1.48616400      -0.51613500      -4.54135800      -1.65418615      -0.77042616      -4.70321778
Fe       8.05258000       6.29152000       6.99912000      -5.65637200      -2.13614500       5.60244700      -5.74088162      -2.34869183       5.72592235
B        0.04547000       6.36131000       2.63966000       0.55615900       2.89343100      -0.65487300       0.53103822       2.93248369      -0.83333217
B        0.78760000       6.41749000       6.11718000       8.96866000      -1.86484800      -4.88573100       9.02661478      -1.45327962      -5.01086324
B        3.88199000       6.18665000       5.24393000       2.40535200      -4.52291800       1.86480100       2.55818891      -4.33879880       2.09366067
B        2.47083000       6.65446000       5.06009000      -4.16668300       1.63659100       0.72991100      -4.58438541       1.26752558       0.83777103
B        5.17040000       4.43420000       7.03607000      -0.49407400       0.60408200      -0.07071100      -0.34238594       0.67685530      -0.15301955
B        4.98477000       7.02089000       1.26112000       2.69184300      -1.01715200      -0.23867300       2.94326299      -1.32169608       0.01729192
B        6.14089000       6.45683000       4.80405000      -1.30138100       0.95082900       0.28639900      -1.06788039       0.92519210       0.45064227
B        6.13162000       8.43071000       2.35098000      -2.35722900       0.80301000      -1.64851700      -2.23714431       0.84195602      -1.25649576
B        4.56795000       7.37597000       4.51000000       1.08899100       1.91413600      -2.46424300       1.44477224       1.71462531      -2.23056914
B        8.43856000       4.83510000       4.92882000       1.36608400      -0.27092900       0.38228600       1.13696023      -0.10086955       0.58457319
Si       2.33663000       0.88304000       1.86191000       0.20378000       0.67375300       0.48954000      -0.08348109       0.34391084       0.42045815
Si       2.47060000       2.01787000       5.82671000       3.44729400      -2.77017900       0.28477400       3.39429263      -2.78673918       0.09784292
Si       3.99754000       3.90209000       5.28043000      -0.52173300       2.24871100       0.56615500      -0.64371354       2.51312183       0.70376911
Si       2.88628000       4.75003000       1.35877000       1.35107300      -4.46219800      -1.82910400       1.42742436      -4.09761083      -1.70190501
Si       3.44659000       7.61488000       0.02362000       9.22872600       3.26579400      -6.84666600       9.05404709       3.22810254      -7.18022674
Si       5.84087000       1.88518000       1.47006000       1.98939500      -2.63771400       1.14825400       2.09744438      -2.56499190       1.32266933
Si       7.50409000       0.39762000       5.72805000       0.28887500      -1.01436500       1.80494100       0.43654861      -0.84335161       1.80436389
Si       7.89236000       2.62826000       0.60996000       1.84518100       0.08413200       2.31178300       2.02826347       0.25679540       2.21049389
Si       7.19466000       4.02992000       7.62402000      -0.41245200      -1.87945400      -6.47557700      -0.22074241      -1.72696704      -6.58787240
Si       6.49362000       5.60380000       2.83650000      15.40678400      -2.74500600      -1.21396800      15.61031486      -3.08129412      -1.17476334
54
Lattice="8.579999685 0.0 0.0 0.0 8.579999685 0.0 0.0 0.0 8.5799996" Properties=species:S:1:pos:R:3:REF_forces:R:3:MACE_forces:R:3 config_type=random2 REF_energy=-360.24557691 MACE_energy=-356.5126454071931 pbc="T T T"
Fe       0.15602000       0.52795000       0.11788000       1.50118900       2.12647900      -0.69082500       1.56764637       2.08814314      -1.06793644
Fe       1.70518000       0.91529000       6.12502000      -0.09988400      -0.42418000       1.68375300      -0.15633161      -0.45598350       1.65941369
Fe       1.54966000       2.36852000       1.06669000      -5.85953100      -4.36721300       0.56745300      -7.02740480      -4.98293384       0.46639400
Fe       1.02665000       1.75632000       4.18103000      -1.38605400      -0.36095700      -0.43690800      -1.64290213       0.22064742      -0.18973393
Fe       1.06359000       3.94918000       2.34805000       0.69749000      -0.85774700       5.96520700       0.55168789      -0.23846153       6.66926120
Fe       1.28487000       3.20120000       7.58043000       3.39307500      -0.26984800       2.42083000       3.19426532      -0.58142810       1.24944810
Fe       1.14161000       6.71049000       0.83829000      -0.40864800      -2.86541500      -0.56258600      -0.38944546      -2.50737006      -0.67848845
Fe       0.40301000       6.75556000       3.85346000      -3.54681400      -2.71605200       0.53524600      -3.60825756      -2.41558750       0.68458123
Fe       2.42406000       1.07205000       2.77097000       0.17396900      -0.59415600       0.13555400       0.41599638      -0.52000544       0.00472207
Fe       3.41034000       2.05710000       0.70145000       6.42881300      -5.02873900      -4.48941300       7.17368932      -5.14930928      -4.23520894
Fe       2.29718000       4.17321000       0.18921000       8.27262100       4.83321100       0.27939000       8.36811448       4.92681241      -0.03478037
Fe       3.97525000       3.01933000       3.45467000      -3.56965100      -1.67327500       4.17175000      -3.60154273      -1.50503135       4.33055469
Fe       2.31555000       3.12797000       5.45181000      -0.56424300       1.47291700      -0.72207500      -0.46509851       1.33395378      -0.85283382
Fe       4.14051000       4.67154000       7.32496000      -1.85033600      -2.49705600      -3.03953400      -1.58367481      -2.07792599      -3.21400980
Fe       3.30273000       6.05901000       1.51938000       1.42520300      -0.93348100       5.20094300       1.30894610      -1.04677421       5.42472397
Fe       2.31083000       5.81669000       6.24071000      -1.65695700      -1.97484000      -1.83228700      -1.99950781      -2.12990882      -1.95979046
Fe       4.23546000       8.36043000       1.12111000      -3.48153700      -2.75255200      -1.29453300      -3.46046362      -2.78251371      -1.37209246
Fe       3.23987000       7.53891000       5.51734000      -0.21665400       2.51274300      -1.38503500      -0.09774684       2.06510076      -1.04189617
Fe       5.12946000       0.94550000       4.94399000      -0.11299800       0.77990500       2.32699000       0.10492739       0.82395529       2.16886951
Fe       5.13589000       1.13489000       7.61232000      -2.35192000      -2.47185700      -1.54459000      -2.00993271      -2.38872820      -1.30694550
Fe       5.77866000       4.23588000       4.79030000      -1.29299100      -0.33304200      -0.54889500      -1.41976383      -0.54969536      -0.56594366
Fe       5.21312000       5.43128000       0.36944000       0.48480600      -1.77457800       2.45456000       0.23073230      -1.80922050       2.44731768
Fe       6.29545000       5.29844000       6.90813000       0.27479600       0.56550300      -0.15217800       0.05256417       1.23231669       0.37036835
Fe       6.35692000       7.06671000       0.82505000      -3.36239600      -4.01210700       4.38604600      -3.53033442      -4.14702780       4.54287511
Fe       5.03038000       6.83997000       3.89378000      -5.77025900      -0.16605500       1.32235200      -5.71483168       0.21492157       1.03957469
Fe       4.78652000       7.09563000       7.12705000       1.46620700       1.40382700      -0.48359700       1.64132185       1.36616555      -0.35634090
Fe       6.27758000       8.37043000       3.24816000       2.63331000      -0.39926000      -1.09188300       2.43210460      -0.59278929      -1.34614144
Fe       6.66778000       2.25230000       0.37441000       0.46215200       5.56438900      -2.13561400       0.74251991       5.52505236      -1.81573204
Fe       7.36634000       1.80676000       3.25099000      -1.00720600       0.66121700       0.12043400      -0.86926869       0.34164672      -0.04586353
Fe       7.20940000       4.10018000       1.95385000       2.57566800      -1.48999600      -0.86593000       2.40833767      -1.89459644      -0.68703969
Fe       7.94471000       3.72778000       4.77598000       1.55881000      -0.58188700      -6.79754900       1.72550935      -0.56753100      -6.51177534
Fe       6.75768000       6.07296000       3.66358000       3.93722500      -2.42586800      -1.10133600       4.08265374      -2.56440702      -1.05760576
Fe       8.21458000       8.08402000       1.87626000      -0.44151800      -0.26603100       3.30322800      -0.69799644      -0.23704335       3.58547921
Fe       7.36868000       8.08437000       5.29726000       0.43877100       0.17228300       0.46133200       0.63251968      -0.02764531       0.68472420
B        0.46931000       2.86958000       6.22296000      -3.80288900      -1.09387000      -7.26709800      -3.04405336      -1.00734989      -6.81862853
B        0.79690000       4.64043000       0.78277000      -5.70109500       2.77781200      -1.37694100      -5.34980382       2.89021501      -1.49454260
B        0.73908000       6.06271000       7.33363000       1.54267100       0.77045400       1.64299100       1.06472647       0.55905230       1.55832946
B        1.70695000       8.30838000       1.61351000       0.69871300       2.04304800      -1.19793700       0.66085288       1.79754437      -1.08197347
B        1.06367000       7.86886000       5.17764000       0.71186900       0.56033400       0.46457700       0.41859332       0.61986775       0.40570330
B        3.05807000       3.31560000       1.75331000       0.60245100       5.37233400       4.97576700       0.66665010       5.33890114       4.93770668
B        4.11376000       3.15831000       5.72174000       0.08260300      -0.21738500      -1.78505000       0.18591574       0.01310712      -1.67106449
B        8.14039000       2.18508000       1.52896000       1.19434400      -0.12824400       0.69320900       1.23444853      -0.03938331       0.67576986
B        8.39030000       2.05308000       7.53614000      -1.77848500      -1.83154800       0.20619400      -1.66902430      -1.89535307       0.51810589
B        8.30153000       5.45928000       1.83309000       1.20856300       4.13672900       0.40624600       1.55465063       4.52721867       0.43778114
Si       3.00019000       6.35380000       8.16132000      -1.19834300       2.89758700      -2.26894600      -1.46369545       2.78419784      -1.86758451
Si       2.24659000       7.26192000       3.26474000       4.14484200       1.08172900      -0.14133900       4.20327080       0.84217838      -0.20255753
Si       6.17884000       0.45233000       0.83743000       1.44634700      -0.49623800       2.03270200       1.50040792      -0.16971974       1.84987907
Si       4.64336000       1.00099000       2.78500000      -0.82361900       2.27383700       0.17243100      -0.70436558       2.24542298       0.27704977
Si       5.30071000       3.73874000       2.23321000      -1.13801900       1.40766600      -1.97244000      -1.26362822       1.23993481      -2.29396623
Si       5.60784000       3.05108000       6.86204000       1.78633600       1.16462800       1.21292600       1.74283334       0.82555309       1.15154646
Si       7.37786000       2.01899000       5.63982000      -1.85188300      -4.99033500       0.63073900      -2.17370191      -5.20830921       0.27697271
Si       7.84836000       3.98525000       7.99758000      -1.73886300       0.76335000       2.02910200      -1.70944791       1.22416395       1.51111370
Si       8.18070000       5.21779000       5.96080000       2.99103300       5.24835700       0.50260400       2.67483954       5.28407911       0.21730203
Si       7.85457000       7.16215000       8.23590000       2.87892000      -0.59652700      -5.12003700       3.11149843      -0.83811941      -5.37509171
54
Lattice="8.579999685 0.0 0.0 0.0 8.579999685 0.0 0.0 0.0 8.5799996" Properties=species:S:1:pos:R:3:REF_forces:R:3:MACE_forces:R:3 config_type=random2 REF_energy=-365.22575864 MACE_energy=-362.1824333099954 pbc="T T T"
Fe       0.20349000       0.43692000       2.30233000      -1.19759000      -0.05132300      -0.31775900      -1.34214470      -0.01294002      -0.34710603
Fe       0.51917000       1.17401000       4.74302000       2.78563200      -1.27976500      -1.64547000       2.76199488      -1.40791670      -1.76279657
Fe       1.38751000       3.23006000       6.69712000      -2.06380500      -0.45204200      -2.64816400      -1.52035857      -0.15634253      -2.73015077
Fe       1.21974000       4.87952000       0.40100000      -2.47724400       1.11533000      -0.99296900      -2.53972507       1.08185389      -0.49730166
Fe       1.97573000       5.54310000       2.88466000       6.09622800      -0.22804000       0.22274800       6.29356055      -0.03086889       0.18731615
Fe       0.24724000       4.67275000       3.31002000       1.25657100      -3.26273900       0.49527800       1.65615850      -3.98826016       0.60799246
Fe       2.05879000       7.00765000       1.04459000      -2.72119300      -0.03775000      -3.04789100      -2.77902899      -0.37521810      -3.24380685
Fe       1.63798000       7.40648000       3.82765000       2.29920100       2.88972100       2.98139100       2.05042871       2.80880048       2.67279713
Fe       1.09226000       7.58547000       7.07334000       0.04029200       2.73525000       0.31147100       0.05746681       2.49247871       0.27658041
Fe       3.60090000       0.57134000       3.89250000       0.69494200       2.40229900      -4.05887500       0.53306636       2.96963187      -4.14812722
Fe       2.65991000       1.09437000       7.86419000      -1.14458000      -0.85522600       2.26630900      -1.08216197      -0.98391845       2.18051183
Fe       2.24446000       3.37294000       4.01156000       1.54847400      -3.07575300       1.59871500       1.35166317      -3.04787080       1.81021221
Fe       2.60814000       3.36778000       8.29224000       2.86850300      -0.48023700       1.04871300       2.87391536      -0.65126848       0.33829977
Fe       3.82657000       5.53146000       0.39663000      -0.49871600      -1.08215200       0.37044000      -0.88847433      -0.95628578       0.44665585
Fe       2.40237000       5.93309000       6.71186000       1.66007800      -1.91531100      -0.54914500       1.63352271      -1.86073587      -0.18381443
Fe       3.83124000       7.22984000       2.26002000       1.16293400      -0.34641600       3.49778100       1.40202666      -0.68233470       3.44174172
Fe       3.99920000       8.45773000       5.51692000       1.28512400      -7.68078000       2.95796600       1.91823757      -7.58032565       3.74413730
Fe       5.22444000       0.95706000       0.14198000      -0.41599900      -1.79364900       3.26990900      -0.39526245      -1.50107680       3.29824069
Fe       5.45558000       1.13972000       6.57432000       2.20837100       0.47887400      -0.56599300       2.33947013       0.22455435      -0.79082528
Fe       5.26466000       2.27135000       4.41008000      -0.17510500       1.86037900      -0.00881300      -0.61560548       1.91200560      -0.09936850
Fe       4.35232000       3.74890000       2.00519000       5.41658000      -2.25214300      -0.60695800       5.56261708      -2.70371614      -0.88884488
Fe       4.94500000       3.07245000       8.16952000       0.69532600       1.35147200      -0.28201500       0.57185857       1.31225186      -0.36282034
Fe       4.72549000       5.27621000       3.27777000       2.48098000       1.19615400       0.41763500       2.66815531       1.87177430       0.38603325
Fe       5.66786000       6.71115000       7.78034000       3.01066600       0.48468200      -0.64974500       3.10682402       0.25247379      -0.27999278