54
Lattice="8.579999685 0.0 0.0 0.0 8.579999685 0.0 0.0 0.0 8.5799996" Properties=species:S:1:pos:R:3:REF_forces:R:3:MACE_forces:R:3 config_type=random2 REF_energy=-363.25552073 MACE_energy=-364.7676489174419 pbc="T T T"
Fe       0.14554000       0.51178000       1.72883000       1.59155600       1.69646400       0.64593400       1.77358162       1.59506520       0.53688610
Fe       0.72405000       1.36449000       4.41023000      -1.29379600       2.22691100       1.75321500      -1.66209948       2.21117816       2.34406298
Fe       1.28013000       1.28154000       8.53445000       0.26225800      -1.72780100      -2.25359700       0.71257558      -0.93574536      -1.76717557
Fe       1.78304000       2.91528000       3.50993000      -2.09245800       1.32746400      -0.69437800      -1.85029952       0.96766272      -0.89862934
Fe       0.75698000       4.21862000       5.92458000       2.67674200       0.07621400       0.69283600       2.51184250      -0.03929384       0.55997500
Fe       0.63053000       4.76090000       0.44438000       2.96454100       3.11113800      -1.75676200       2.71021610       2.62545490      -1.99162079
Fe       0.02633000       4.52370000       2.53911000       1.51365300       0.35504600       1.69572400       1.25156427       0.01465356       2.18541015
Fe       1.82831000       7.54412000       1.78795000       0.87467800      -2.32144700      -3.97784800       1.14082080      -2.26788009      -3.70201767
Fe       1.35484000       8.36643000       3.60252000      -0.64195500      -5.00077700       1.37065900      -0.64386349      -4.64502112       0.98216614
Fe       0.00278000       7.66371000       8.06149000       0.84677900       3.28625900       0.13433000       1.01440909       3.65281129       0.18035907
Fe       3.20977000       0.65911000       4.08840000       1.20299600       0.08567500       0.16844000       1.77240834       0.32351868       0.32898395
Fe       3.81428000       3.40248000       2.69765000       1.92092000      -1.15662700      -3.56356700       1.66798710      -0.91809603      -3.14818475
Fe       2.27468000       3.19194000       8.08871000       0.59526400       1.04068000       0.20830700       0.75267308       0.73158991      -0.09233754
Fe       2.36527000       5.68967000       3.77721000      -1.32118300       3.62799500      -7.73735100      -0.75590288       3.46451869      -7.70580375
Fe       3.31539000       4.98429000       6.86176000      -4.76733700       1.31799100      -0.15025300      -4.64956572       1.29654217      -0.30577419
Fe       4.14047000       8.03537000       2.57836000      -0.12326500       0.71998900      -4.54677200      -0.42062954       0.23585097      -4.24537684
Fe       2.33721000       7.37963000       6.97430000      -3.25408300      -0.42617300       0.11952900      -2.94779186      -0.19023565      -0.03215093
Fe       5.49649000       2.81617000       0.00560000      -0.38440000       1.06482400       2.77431200      -0.80305355       0.77193217       2.92199881
Fe       4.90462000       2.19117000       4.68344000      -0.30939700      -0.22068900       0.15476200      -0.48779005      -0.27444378       0.30603067
Fe       6.05887000       2.28929000       6.72430000      -2.40764300      -1.20527600      -2.21344100      -2.40263869      -1.27790995      -2.75848192
Fe       4.96066000       5.38738000       0.05685000      -5.52595300       0.24353800      -1.43029300      -5.64329185       0.39764580      -0.97824946
Fe       4.63277000       5.58711000       3.43909000       0.15670200       0.36247400      -2.39573300       0.54524603       0.52864209      -1.85853966
Fe       5.47216000       4.57113000       5.11890000       2.10490400      -2.93581200      -1.75472200       2.27831105      -2.50616632      -2.03885297
Fe       6.30403000       5.90903000       6.68980000       0.34040700       3.61786100       1.57378600      -0.19687044       3.52110304       0.72221870
Fe       5.70388000       7.66893000       0.29664000      -0.15104200       0.56316800      -2.35128400      -0.03382071       0.84582764      -2.68583552
Fe       4.59755000       7.72233000       6.72559000       2.86127800       5.76095300       2.11819400       3.17935911       5.64242392       2.11336104
Fe       6.69102000       2.72189000       3.39445000       0.82746800       0.11261800      -1.32677500       0.69949205       0.09540661      -1.40619173
Fe       7.82489000       2.79083000       5.52653000       0.57260400      -7.67863200      -2.50501700       0.52370056      -7.43842906      -2.29866668
Fe       7.54254000       1.43077000       8.06710000       0.33636900      -1.31354300       0.06591500       0.67990395      -0.93601345       0.34702285
Fe       6.83339000       5.01847000       0.43089000       4.01851000      -1.75305200       1.07569000       4.24094360      -1.42102237       1.21214365
Fe       7.80095000       6.57346000       4.77816000       4.73736500       1.98019500       6.49954800       4.74079790       1.83960790       6.49729575
Fe       8.33789000       5.95118000       7.24348000       2.01691100      -0.30640800      -0.91254000       2.36531816      -0.45291070      -1.00365609
Fe       7.34696000       7.25711000       1.28757000       7.90645500      -4.42309700       1.23948600       7.71655934      -4.56263436       1.34655378
Fe       7.43242000       8.44439000       3.63072000      -1.39910700       0.40142200      -0.15691100      -1.31283959       0.43332900      -0.10735117
B        1.97996000       5.43579000       5.32338000      -0.33243100       1.61500000       5.95131600      -0.72659176       1.36853996       5.99768157
B        0.49461000       6.49135000       2.99766000      -0.31705400       0.59177900      -0.01053800      -0.42774561       0.47681135       0.17369670
B        3.37504000       7.40708000       5.38089000      -5.99801200       0.47595800      -0.02338300      -5.62228608       0.84422468       0.38717004
B        4.96515000       4.52318000       6.89092000       3.31349400      -3.18234200       1.78657900       3.14669220      -2.99503493       1.39734990
B        5.58896000       5.84005000       1.76460000       0.64861700       0.75442100       1.21706300       0.62638987       0.80296371       1.00777942
B        5.83801000       7.06270000       4.90751000       3.37632700      -0.49791000      -0.21154100       3.09171719      -0.20680835       0.02059632
B        4.61582000       6.31906000       5.77296000      -1.03151500      -4.56273800      -3.32360500      -1.12922722      -5.00511335      -2.80861649
B        5.97309000       7.45393000       2.31973000      -2.96928400       1.09257400       2.97626800      -2.91333544       0.91938048       3.20729078
B        4.33874000       7.29192000       4.22868000       1.12064900       0.81723600       0.43610100       0.57046778       0.85895064      -0.64298839
B        7.72559000       4.19378000       4.57689000      -0.45124300       3.98855700      -2.90870800      -0.59490372       3.96283546      -2.86445580
Si       2.36775000       1.39684000       1.89633000       1.21065900       0.18949800       0.44841900       1.18567434      -0.12983171       0.40325443
Si       2.71399000       1.54914000       5.95224000      -0.97150700       1.13117000       2.76442000      -0.74308361       0.89171109       2.46588055
Si       3.28955000       3.98982000       4.60004000       0.74842900      -0.88155400       4.79535100       0.98232589      -1.02323291       4.02985492
Si       2.89881000       5.25907000       1.19827000      -0.23285300      -0.18968200       0.16399200      -0.45657706      -0.28513170       0.14182248
Si       3.70049000       7.63232000       0.08133000      -4.14839400      -0.17279700       2.68798100      -4.35268900      -0.00452243       2.66050728
Si       6.67656000       0.73535000       1.44116000      -3.60544400       3.39071100       0.89862900      -3.71941664       3.35332516       1.03863363
Si       7.67019000       0.53497000       5.89855000      -0.08039200      -1.77360700       0.76356800      -0.23688226      -1.48828711       0.57656754
Si       8.29725000       2.99648000       0.96254000      -1.13453400      -3.27728700       0.33879000      -1.41902674      -3.36202406       0.35717185
Si       7.40923000       4.02958000       6.96965000      -1.81600400       0.96913600       4.48163600      -1.54105467       0.47102374       4.72848735
Si       7.01249000       5.74161000       3.32202000      -3.98624800      -2.98766700      -5.79576500      -4.18770033      -2.77874207      -5.83725618
54
Lattice="8.579999685 0.0 0.0 0.0 8.579999685 0.0 0.0 0.0 8.5799996" Properties=species:S:1:pos:R:3:REF_forces:R:3:MACE_forces:R:3 config_type=random2 REF_energy=-358.18453515 MACE_energy=-360.0156028388029 pbc="T T T"
Fe       0.67784000       1.42600000       4.73270000       0.73286300      -0.83759600      -0.86363300       0.80076671      -0.42526635      -1.06788745
Fe       1.80600000       0.78628000       7.98152000      -0.21501700       4.54628000       1.47421800      -0.09954632       4.60180265       1.50323959
Fe       1.72820000       3.31227000       3.62866000       1.47689300      -1.16474500       0.84209400       1.80557107      -1.34265703       0.90510156
Fe       1.26949000       3.60873000       6.28045000      -2.30845800       2.47241900      -0.02322800      -2.57804486       2.49227605       0.29724742
Fe       0.99472000       5.31230000       0.60430000      -2.51259200      -1.02653900      -1.17393400      -2.31118363      -0.96436506      -1.36065310
Fe       0.20061000       4.55674000       2.88710000      -1.84897700      -0.58032100      -0.41954500      -1.72255358      -0.72039581      -0.44934757
Fe       0.17403000       7.49971000       0.22557000      -1.18320700      -1.63527800      -1.18960000      -1.23221636      -1.69905399      -1.03884215
Fe       2.11762000       7.20795000       1.12963000      -8.60668700      -2.28539000       6.55154800      -8.61575893      -2.35199887       6.71158503
Fe       1.53173000       7.83266000       3.80603000      -1.65905400      -0.11404600      -0.89610500      -1.38710793      -0.01984186      -0.88375809
Fe       1.74486000       7.54079000       7.38183000      -0.77016800      -2.84296400      -4.33487700      -0.26542425      -3.01956682      -4.50670108
Fe       3.56186000       0.47927000       3.91303000      -0.80393000       0.09573100       0.48864500      -0.61005091       0.42724094       0.77899538
Fe       2.69544000       3.32913000       8.35331000      -0.91529500      -1.37466700      -1.27096300      -1.07287445      -1.00836004      -1.46814271
Fe       2.50726000       5.55253000       3.00891000      -3.70845900       1.84549900       7.06229400      -3.60300521       1.53911275       7.01879370
Fe       2.66303000       5.37632000       6.86323000       1.34009500       0.58131700      -1.07274400       1.01983110       0.52726763      -0.85749591
Fe       3.68938000       7.29321000       2.47293000       0.29505500       3.79600900       1.74225700       0.35016190       3.88401839       1.95985407
Fe       5.40299000       0.02262000       0.28245000       1.09754400       1.37381700      -0.56286500       1.02203272       1.28903593      -0.83224398
Fe       4.76280000       2.19193000       4.29489000       2.19427600      -1.08862000       1.63743200       2.07153706      -1.04374312       1.25830666
Fe       5.87698000       1.49013000       6.50500000      -2.18598600       1.19192000       1.46600100      -2.20286160       1.18537104       1.40425542
Fe       4.48055000       3.07540000       2.45780000      -2.84622400       3.45030800      -0.21057900      -2.53460241       3.22204152      -0.30359817
Fe       4.83688000       2.94002000       8.43684000       0.49024200       0.44080300      -1.29325900       0.52300977       0.52220943      -1.13702839
Fe       4.30622000       5.52054000       0.10302000       2.65356400      -0.61538500      -1.14058600       2.31986101      -0.68839954      -1.45319871
Fe       4.85577000       5.68427000       3.22538000     -13.58892600      -0.68123400       5.77741200     -13.47748113      -1.29448109       5.15217638
Fe       5.84993000       6.63152000       7.18110000       2.03459500      -3.33577600       1.78593900       1.92978504      -3.46305684       1.41577448
Fe       4.72930000       7.89323000       6.40878000      -2.94043200       3.01534400      -1.87259700      -2.94804763       3.13281531      -1.62993886
Fe       8.57594000       0.14462000       1.86915000       1.84558700       1.97931100       0.93135500       1.50652247       1.95318897       0.85024266
Fe       7.40625000       0.48915000       3.55738000      -1.33936600      -1.43260200       0.55771200      -1.28353718      -1.29472365       0.68078601
Fe       7.75862000       0.67902000       8.04704000      -0.77003900       0.72030400      -0.65512800      -0.75126370       0.63260362      -0.58984468
Fe       7.46465000       2.57205000       3.33742000      -0.45460800       2.06343200      -2.84623400      -0.51483999       1.77958533      -2.25208707
Fe       7.51645000       2.84284000       5.46098000       2.51807600      -2.81291200       2.63874200       2.30696155      -2.66580995       2.15761515
Fe       7.11718000       5.17386000       0.62422000       0.27145600      -0.82583000       2.77819000      -0.05798443      -0.89919336       2.85821151
Fe       6.51145000       4.47616000       5.19496000      -3.21759500       3.62253300      -0.00675500      -3.38753953       3.28333916       0.11181995
Fe       6.97347000       7.04758000       1.38649000       0.48266800       2.22145100      -0.50307700       0.44231157       2.64718991      -0.55691933
Fe       8.10334000       7.04288000       4.95886000      -1.48616400      -0.51613500      -4.54135800      -1.64558178      -0.76992353      -4.61132148
Fe       8.05258000       6.29152000       6.99912000      -5.65637200      -2.13614500       5.60244700      -5.74462459      -2.34677228       5.78225828
B        0.04547000       6.36131000       2.63966000       0.55615900       2.89343100      -0.65487300       0.54446992       3.01660821      -0.81602217
B        0.78760000       6.41749000       6.11718000       8.96866000      -1.86484800      -4.88573100       8.92972808      -1.47335489      -5.14117314
B        3.88199000       6.18665000       5.24393000       2.40535200      -4.52291800       1.86480100       2.52893396      -4.11898408       2.09748767
B        2.47083000       6.65446000       5.06009000      -4.16668300       1.63659100       0.72991100      -4.59084088       1.20317953       0.93597145
B        5.17040000       4.43420000       7.03607000      -0.49407400       0.60408200      -0.07071100      -0.29484784       0.69555892      -0.10294599
B        4.98477000       7.02089000       1.26112000       2.69184300      -1.01715200      -0.23867300       2.92532482      -1.21522355       0.04274998
B        6.14089000       6.45683000       4.80405000      -1.30138100       0.95082900       0.28639900      -1.14497021       0.93092843       0.35646995
B        6.13162000       8.43071000       2.35098000      -2.35722900       0.80301000      -1.64851700      -2.36602722       0.78993042      -1.31005687
B        4.56795000       7.37597000       4.51000000       1.08899100       1.91413600      -2.46424300       1.45494704       1.63623685      -2.16121373
B        8.43856000       4.83510000       4.92882000       1.36608400      -0.27092900       0.38228600       1.08380244      -0.08824861       0.62224551
Si       2.33663000       0.88304000       1.86191000       0.20378000       0.67375300       0.48954000      -0.12749473       0.23368132       0.40122705
Si       2.47060000       2.01787000       5.82671000       3.44729400      -2.77017900       0.28477400       3.32303740      -2.61342417       0.07163495
Si       3.99754000       3.90209000       5.28043000      -0.52173300       2.24871100       0.56615500      -0.62260671       2.37712233       0.66895566
Si       2.88628000       4.75003000       1.35877000       1.35107300      -4.46219800      -1.82910400       1.38148878      -4.01521606      -1.74165857
Si       3.44659000       7.61488000       0.02362000       9.22872600       3.26579400      -6.84666600       8.87465037       3.14802463      -7.16593732
Si       5.84087000       1.88518000       1.47006000       1.98939500      -2.63771400       1.14825400       2.06021158      -2.43791678       1.25574177
Si       7.50409000       0.39762000       5.72805000       0.28887500      -1.01436500       1.80494100       0.38308787      -0.75640553       1.74641955
Si       7.89236000       2.62826000       0.60996000       1.84518100       0.08413200       2.31178300       1.96639597       0.24102216       2.12953103
Si       7.19466000       4.02992000       7.62402000      -0.41245200      -1.87945400      -6.47557700      -0.19654204      -1.69336610      -6.56703789
Si       6.49362000       5.60380000       2.83650000      15.40678400      -2.74500600      -1.21396800      15.83502982      -2.96164247      -1.16964343
54
Lattice="8.579999685 0.0 0.0 0.0 8.579999685 0.0 0.0 0.0 8.5799996" Properties=species:S:1:pos:R:3:REF_forces:R:3:MACE_forces:R:3 config_type=random2 REF_energy=-360.24557691 MACE_energy=-361.25827838432053 pbc="T T T"
Fe       0.15602000       0.52795000       0.11788000       1.50118900       2.12647900      -0.69082500       1.55983666       1.95982700      -1.09409649
Fe       1.70518000       0.91529000       6.12502000      -0.09988400      -0.42418000       1.68375300      -0.16057512      -0.45499195       1.74826916
Fe       1.54966000       2.36852000       1.06669000      -5.85953100      -4.36721300       0.56745300      -7.06070516      -5.03178700       0.47430079
Fe       1.02665000       1.75632000       4.18103000      -1.38605400      -0.36095700      -0.43690800      -1.70701426       0.27535833      -0.12474658
Fe       1.06359000       3.94918000       2.34805000       0.69749000      -0.85774700       5.96520700       0.63807470      -0.11624362       6.73463746
Fe       1.28487000       3.20120000       7.58043000       3.39307500      -0.26984800       2.42083000       3.10752415      -0.60281873       1.18605762
Fe       1.14161000       6.71049000       0.83829000      -0.40864800      -2.86541500      -0.56258600      -0.43175446      -2.57140240      -0.72767988
Fe       0.40301000       6.75556000       3.85346000      -3.54681400      -2.71605200       0.53524600      -3.48703748      -2.35592257       0.60138058
Fe       2.42406000       1.07205000       2.77097000       0.17396900      -0.59415600       0.13555400       0.52031359      -0.51751499      -0.05717388
Fe       3.41034000       2.05710000       0.70145000       6.42881300      -5.02873900      -4.48941300       7.21968531      -5.16897018      -4.23039149
Fe       2.29718000       4.17321000       0.18921000       8.27262100       4.83321100       0.27939000       8.35023144       4.93037637      -0.07609108
Fe       3.97525000       3.01933000       3.45467000      -3.56965100      -1.67327500       4.17175000      -3.49653008      -1.53470349       4.23721336
Fe       2.31555000       3.12797000       5.45181000      -0.56424300       1.47291700      -0.72207500      -0.47656727       1.43257781      -0.83401509
Fe       4.14051000       4.67154000       7.32496000      -1.85033600      -2.49705600      -3.03953400      -1.56436580      -2.00753085      -3.20525612
Fe       3.30273000       6.05901000       1.51938000       1.42520300      -0.93348100       5.20094300       1.22398727      -0.98528506       5.26217567
Fe       2.31083000       5.81669000       6.24071000      -1.65695700      -1.97484000      -1.83228700      -1.90285731      -2.12819796      -1.87914181
Fe       4.23546000       8.36043000       1.12111000      -3.48153700      -2.75255200      -1.29453300      -3.42824503      -2.72260869      -1.28967568
Fe       3.23987000       7.53891000       5.51734000      -0.21665400       2.51274300      -1.38503500      -0.09327588       2.03182842      -1.07968363
Fe       5.12946000       0.94550000       4.94399000      -0.11299800       0.77990500       2.32699000       0.12745336       0.81528018       2.04225984
Fe       5.13589000       1.13489000       7.61232000      -2.35192000      -2.47185700      -1.54459000      -1.98172532      -2.36264252      -1.29036885
Fe       5.77866000       4.23588000       4.79030000      -1.29299100      -0.33304200      -0.54889500      -1.43679175      -0.52684793      -0.60454913
Fe       5.21312000       5.43128000       0.36944000       0.48480600      -1.77457800       2.45456000       0.20180397      -1.80336009       2.40572853
Fe       6.29545000       5.29844000       6.90813000       0.27479600       0.56550300      -0.15217800      -0.00851589       1.25221027       0.36322440
Fe       6.35692000       7.06671000       0.82505000      -3.36239600      -4.01210700       4.38604600      -3.44808039      -3.94451455       4.48080587
Fe       5.03038000       6.83997000       3.89378000      -5.77025900      -0.16605500       1.32235200      -5.64786467       0.27278160       1.03443195
Fe       4.78652000       7.09563000       7.12705000       1.46620700       1.40382700      -0.48359700       1.53633111       1.19253352      -0.33551907
Fe       6.27758000       8.37043000       3.24816000       2.63331000      -0.39926000      -1.09188300       2.39232228      -0.58911123      -1.37955476
Fe       6.66778000       2.25230000       0.37441000       0.46215200       5.56438900      -2.13561400       0.63350003       5.21538445      -1.73140850
Fe       7.36634000       1.80676000       3.25099000      -1.00720600       0.66121700       0.12043400      -0.87066858       0.32451213       0.05341568
Fe       7.20940000       4.10018000       1.95385000       2.57566800      -1.48999600      -0.86593000       2.30260007      -1.96015739      -0.69856636
Fe       7.94471000       3.72778000       4.77598000       1.55881000      -0.58188700      -6.79754900       1.67212406      -0.59505212      -6.35372760
Fe       6.75768000       6.07296000       3.66358000       3.93722500      -2.42586800      -1.10133600       4.04762422      -2.52786674      -1.03328334
Fe       8.21458000       8.08402000       1.87626000      -0.44151800      -0.26603100       3.30322800      -0.76806345      -0.20104191       3.50882542
Fe       7.36868000       8.08437000       5.29726000       0.43877100       0.17228300       0.46133200       0.63631357       0.06353875       0.62538702
B        0.46931000       2.86958000       6.22296000      -3.80288900      -1.09387000      -7.26709800      -2.91716770      -1.03051048      -6.70811436
B        0.79690000       4.64043000       0.78277000      -5.70109500       2.77781200      -1.37694100      -5.35265051       3.01077095      -1.43538988
B        0.73908000       6.06271000       7.33363000       1.54267100       0.77045400       1.64299100       1.02888775       0.60407701       1.62584816
B        1.70695000       8.30838000       1.61351000       0.69871300       2.04304800      -1.19793700       0.66904108       1.77412634      -1.06684518
B        1.06367000       7.86886000       5.17764000       0.71186900       0.56033400       0.46457700       0.37124994       0.62394875       0.46586465
B        3.05807000       3.31560000       1.75331000       0.60245100       5.37233400       4.97576700       0.70245595       5.32295889       5.05605801
B        4.11376000       3.15831000       5.72174000       0.08260300      -0.21738500      -1.78505000       0.32127162      -0.00826124      -1.65095670
B        8.14039000       2.18508000       1.52896000       1.19434400      -0.12824400       0.69320900       1.19245922      -0.08406469       0.71378445
B        8.39030000       2.05308000       7.53614000      -1.77848500      -1.83154800       0.20619400      -1.63204664      -1.89419584       0.50088768
B        8.30153000       5.45928000       1.83309000       1.20856300       4.13672900       0.40624600       1.64553600       4.66012019       0.45878325
Si       3.00019000       6.35380000       8.16132000      -1.19834300       2.89758700      -2.26894600      -1.35716187       2.74294764      -1.74908866
Si       2.24659000       7.26192000       3.26474000       4.14484200       1.08172900      -0.14133900       4.08612612       0.82634967      -0.25085541
Si       6.17884000       0.45233000       0.83743000       1.44634700      -0.49623800       2.03270200       1.56289709      -0.13170097       1.78884170
Si       4.64336000       1.00099000       2.78500000      -0.82361900       2.27383700       0.17243100      -0.70323236       2.18561513       0.26945482
Si       5.30071000       3.73874000       2.23321000      -1.13801900       1.40766600      -1.97244000      -1.35860318       1.17344146      -2.28327023
Si       5.60784000       3.05108000       6.86204000       1.78633600       1.16462800       1.21292600       1.74908281       0.76819427       1.05836409
Si       7.37786000       2.01899000       5.63982000      -1.85188300      -4.99033500       0.63073900      -2.28858753      -5.20951628       0.14604572
Si       7.84836000       3.98525000       7.99758000      -1.73886300       0.76335000       2.02910200      -1.55558845       1.30542855       1.37928967
Si       8.18070000       5.21779000       5.96080000       2.99103300       5.24835700       0.50260400       2.59476705       5.05769161       0.20325025
Si       7.85457000       7.16215000       8.23590000       2.87892000      -0.59652700      -5.12003700       3.04217569      -0.75505782      -5.25513604
54
Lattice="8.579999685 0.0 0.0 0.0 8.579999685 0.0 0.0 0.0 8.5799996" Properties=species:S:1:pos:R:3:REF_forces:R:3:MACE_forces:R:3 config_type=random2 REF_energy=-365.22575864 MACE_energy=-367.0196316004724 pbc="T T T"
Fe       0.20349000       0.43692000       2.30233000      -1.19759000      -0.05132300      -0.31775900      -1.27658242      -0.10414914      -0.34637942
Fe       0.51917000       1.17401000       4.74302000       2.78563200      -1.27976500      -1.64547000       2.60232577      -1.40500879      -1.69499098
Fe       1.38751000       3.23006000       6.69712000      -2.06380500      -0.45204200      -2.64816400      -1.39848053      -0.20294062      -2.63927042
Fe       1.21974000       4.87952000       0.40100000      -2.47724400       1.11533000      -0.99296900      -2.42107131       1.05648187      -0.45154579
Fe       1.97573000       5.54310000       2.88466000       6.09622800      -0.22804000       0.22274800       6.46143668      -0.15817094       0.17638507
Fe       0.24724000       4.67275000       3.31002000       1.25657100      -3.26273900       0.49527800       1.65760618      -3.94788383       0.67724869
Fe       2.05879000       7.00765000       1.04459000      -2.72119300      -0.03775000      -3.04789100      -2.75834258      -0.36567845      -3.13714560
Fe       1.63798000       7.40648000       3.82765000       2.29920100       2.88972100       2.98139100       2.01698966       2.92791619       2.62119063
Fe       1.09226000       7.58547000       7.07334000       0.04029200       2.73525000       0.31147100       0.04805733       2.45378544       0.24256638
Fe       3.60090000       0.57134000       3.89250000       0.69494200       2.40229900      -4.05887500       0.52909331       2.97770003      -4.06483929
Fe       2.65991000       1.09437000       7.86419000      -1.14458000      -0.85522600       2.26630900      -1.01748930      -0.97053817       2.01501293
Fe       2.24446000       3.37294000       4.01156000       1.54847400      -3.07575300       1.59871500       1.37097566      -3.00096939       1.77331788
Fe       2.60814000       3.36778000       8.29224000       2.86850300      -0.48023700       1.04871300       2.87956627      -0.61394880       0.26820341
Fe       3.82657000       5.53146000       0.39663000      -0.49871600      -1.08215200       0.37044000      -0.98831493      -0.84896216       0.47003187
Fe       2.40237000       5.93309000       6.71186000       1.66007800      -1.91531100      -0.54914500       1.62699231      -1.84660375      -0.23864311
Fe       3.83124000       7.22984000       2.26002000       1.16293400      -0.34641600       3.49778100       1.36118438      -0.75776224       3.39318053
Fe       3.99920000       8.45773000       5.51692000       1.28512400      -7.68078000       2.95796600       1.88498159      -7.41860355       3.69322672
Fe       5.22444000       0.95706000       0.14198000      -0.41599900      -1.79364900       3.26990900      -0.39277650      -1.51228692       3.26201454
Fe       5.45558000       1.13972000       6.57432000       2.20837100       0.47887400      -0.56599300       2.30329955       0.26540330      -0.81236714
Fe       5.26466000       2.27135000       4.41008000      -0.17510500       1.86037900      -0.00881300      -0.62341109       1.82754782      -0.08498784
Fe       4.35232000       3.74890000       2.00519000       5.41658000      -2.25214300      -0.60695800       5.39300791      -2.71738959      -0.89559685
Fe       4.94500000       3.07245000       8.16952000       0.69532600       1.35147200      -0.28201500       0.54095786       1.33543398      -0.42364892
Fe       4.72549000       5.27621000       3.27777000       2.48098000       1.19615400       0.41763500       2.63598057       1.86182697       0.41733778
Fe       5.66786000       6.71115000       7.78034000       3.01066600       0.48468200      -0.64974500       2.93769191       0.33128763      -0.27615701