54
Lattice="8.579999685 0.0 0.0 0.0 8.579999685 0.0 0.0 0.0 8.5799996" Properties=species:S:1:pos:R:3:REF_forces:R:3:MACE_forces:R:3 config_type=random2 REF_energy=-363.25552073 MACE_energy=-363.67234163958614 pbc="T T T"
Fe       0.14554000       0.51178000       1.72883000       1.59155600       1.69646400       0.64593400       1.67441545       1.56677122       0.47502539
Fe       0.72405000       1.36449000       4.41023000      -1.29379600       2.22691100       1.75321500      -1.62210026       2.25589779       2.23303947
Fe       1.28013000       1.28154000       8.53445000       0.26225800      -1.72780100      -2.25359700       0.79067461      -0.99543433      -1.86115940
Fe       1.78304000       2.91528000       3.50993000      -2.09245800       1.32746400      -0.69437800      -1.85770854       1.00265800      -0.84419366
Fe       0.75698000       4.21862000       5.92458000       2.67674200       0.07621400       0.69283600       2.51808286       0.04568059       0.53195859
Fe       0.63053000       4.76090000       0.44438000       2.96454100       3.11113800      -1.75676200       2.78428460       2.63594698      -1.90852903
Fe       0.02633000       4.52370000       2.53911000       1.51365300       0.35504600       1.69572400       1.12209889       0.06273928       2.23513362
Fe       1.82831000       7.54412000       1.78795000       0.87467800      -2.32144700      -3.97784800       1.03117275      -2.25514834      -3.70031994
Fe       1.35484000       8.36643000       3.60252000      -0.64195500      -5.00077700       1.37065900      -0.56204147      -4.63995788       0.95169220
Fe       0.00278000       7.66371000       8.06149000       0.84677900       3.28625900       0.13433000       0.96854970       3.61552417       0.13002796
Fe       3.20977000       0.65911000       4.08840000       1.20299600       0.08567500       0.16844000       1.65572425       0.27852264       0.34860846
Fe       3.81428000       3.40248000       2.69765000       1.92092000      -1.15662700      -3.56356700       1.63915096      -0.93921451      -3.24408039
Fe       2.27468000       3.19194000       8.08871000       0.59526400       1.04068000       0.20830700       0.66795582       0.74880039      -0.03247487
Fe       2.36527000       5.68967000       3.77721000      -1.32118300       3.62799500      -7.73735100      -0.79817789       3.42809786      -7.51048269
Fe       3.31539000       4.98429000       6.86176000      -4.76733700       1.31799100      -0.15025300      -4.69636178       1.37868364      -0.35389110
Fe       4.14047000       8.03537000       2.57836000      -0.12326500       0.71998900      -4.54677200      -0.41334982       0.22881834      -4.23009025
Fe       2.33721000       7.37963000       6.97430000      -3.25408300      -0.42617300       0.11952900      -2.86194384      -0.13104580      -0.05470744
Fe       5.49649000       2.81617000       0.00560000      -0.38440000       1.06482400       2.77431200      -0.72932765       0.84908078       2.88790409
Fe       4.90462000       2.19117000       4.68344000      -0.30939700      -0.22068900       0.15476200      -0.41840692      -0.27685957       0.18535085
Fe       6.05887000       2.28929000       6.72430000      -2.40764300      -1.20527600      -2.21344100      -2.39844191      -1.22810023      -2.65042159
Fe       4.96066000       5.38738000       0.05685000      -5.52595300       0.24353800      -1.43029300      -5.68837058       0.41467327      -1.04601477
Fe       4.63277000       5.58711000       3.43909000       0.15670200       0.36247400      -2.39573300       0.63228584       0.56838758      -1.75910758
Fe       5.47216000       4.57113000       5.11890000       2.10490400      -2.93581200      -1.75472200       2.16647948      -2.38589988      -1.91955802
Fe       6.30403000       5.90903000       6.68980000       0.34040700       3.61786100       1.57378600      -0.25557573       3.61932979       0.65407351
Fe       5.70388000       7.66893000       0.29664000      -0.15104200       0.56316800      -2.35128400      -0.09460728       0.73774367      -2.59239134
Fe       4.59755000       7.72233000       6.72559000       2.86127800       5.76095300       2.11819400       3.03731168       5.38914910       1.85624151
Fe       6.69102000       2.72189000       3.39445000       0.82746800       0.11261800      -1.32677500       0.66960826       0.03492881      -1.32401357
Fe       7.82489000       2.79083000       5.52653000       0.57260400      -7.67863200      -2.50501700       0.50077918      -7.39618462      -2.33211784
Fe       7.54254000       1.43077000       8.06710000       0.33636900      -1.31354300       0.06591500       0.61599184      -1.04008228       0.27230079
Fe       6.83339000       5.01847000       0.43089000       4.01851000      -1.75305200       1.07569000       4.24354851      -1.41881935       1.24863708
Fe       7.80095000       6.57346000       4.77816000       4.73736500       1.98019500       6.49954800       4.63818558       1.89962187       6.43664715
Fe       8.33789000       5.95118000       7.24348000       2.01691100      -0.30640800      -0.91254000       2.23209155      -0.47410161      -1.05141612
Fe       7.34696000       7.25711000       1.28757000       7.90645500      -4.42309700       1.23948600       7.49405843      -4.59826737       1.42611352
Fe       7.43242000       8.44439000       3.63072000      -1.39910700       0.40142200      -0.15691100      -1.33379129       0.43803008      -0.10670222
B        1.97996000       5.43579000       5.32338000      -0.33243100       1.61500000       5.95131600      -0.65009955       1.33359337       5.84750532
B        0.49461000       6.49135000       2.99766000      -0.31705400       0.59177900      -0.01053800      -0.33932806       0.46370271       0.17565097
B        3.37504000       7.40708000       5.38089000      -5.99801200       0.47595800      -0.02338300      -5.52804909       0.91432597       0.44964046
B        4.96515000       4.52318000       6.89092000       3.31349400      -3.18234200       1.78657900       3.11170841      -3.08845693       1.39922980
B        5.58896000       5.84005000       1.76460000       0.64861700       0.75442100       1.21706300       0.65267369       0.76440725       0.86939740
B        5.83801000       7.06270000       4.90751000       3.37632700      -0.49791000      -0.21154100       3.06115977      -0.38978242       0.16230740
B        4.61582000       6.31906000       5.77296000      -1.03151500      -4.56273800      -3.32360500      -0.99851913      -4.84038431      -2.76627976
B        5.97309000       7.45393000       2.31973000      -2.96928400       1.09257400       2.97626800      -2.82866122       0.90083261       3.18363726
B        4.33874000       7.29192000       4.22868000       1.12064900       0.81723600       0.43610100       0.68619507       0.80056222      -0.52199152
B        7.72559000       4.19378000       4.57689000      -0.45124300       3.98855700      -2.90870800      -0.44729544       3.83639373      -2.76034874
Si       2.36775000       1.39684000       1.89633000       1.21065900       0.18949800       0.44841900       1.22745881      -0.07136335       0.45917264
Si       2.71399000       1.54914000       5.95224000      -0.97150700       1.13117000       2.76442000      -0.80020476       0.79670811       2.47266087
Si       3.28955000       3.98982000       4.60004000       0.74842900      -0.88155400       4.79535100       1.07277230      -0.93317387       4.21951995
Si       2.89881000       5.25907000       1.19827000      -0.23285300      -0.18968200       0.16399200      -0.34480920      -0.36947671       0.23359204
Si       3.70049000       7.63232000       0.08133000      -4.14839400      -0.17279700       2.68798100      -4.15591067       0.02176271       2.55199931
Si       6.67656000       0.73535000       1.44116000      -3.60544400       3.39071100       0.89862900      -3.54785857       3.39249256       1.05520623
Si       7.67019000       0.53497000       5.89855000      -0.08039200      -1.77360700       0.76356800      -0.29140854      -1.56307401       0.51578447
Si       8.29725000       2.99648000       0.96254000      -1.13453400      -3.27728700       0.33879000      -1.42772781      -3.16403172       0.38229391
Si       7.40923000       4.02958000       6.96965000      -1.81600400       0.96913600       4.48163600      -1.53593659       0.57574762       4.52246353
Si       7.01249000       5.74161000       3.32202000      -3.98624800      -2.98766700      -5.79576500      -4.26840473      -2.80075565      -5.80252393
54
Lattice="8.579999685 0.0 0.0 0.0 8.579999685 0.0 0.0 0.0 8.5799996" Properties=species:S:1:pos:R:3:REF_forces:R:3:MACE_forces:R:3 config_type=random2 REF_energy=-358.18453515 MACE_energy=-358.5887111228501 pbc="T T T"
Fe       0.67784000       1.42600000       4.73270000       0.73286300      -0.83759600      -0.86363300       0.73807482      -0.42996810      -1.06161447
Fe       1.80600000       0.78628000       7.98152000      -0.21501700       4.54628000       1.47421800      -0.20678250       4.54942139       1.43599192
Fe       1.72820000       3.31227000       3.62866000       1.47689300      -1.16474500       0.84209400       1.76178253      -1.35748381       0.85125014
Fe       1.26949000       3.60873000       6.28045000      -2.30845800       2.47241900      -0.02322800      -2.65904402       2.59314122       0.27278623
Fe       0.99472000       5.31230000       0.60430000      -2.51259200      -1.02653900      -1.17393400      -2.41381847      -1.03460789      -1.35984045
Fe       0.20061000       4.55674000       2.88710000      -1.84897700      -0.58032100      -0.41954500      -1.77134918      -0.66102470      -0.43539051
Fe       0.17403000       7.49971000       0.22557000      -1.18320700      -1.63527800      -1.18960000      -1.26408289      -1.67870123      -1.02612354
Fe       2.11762000       7.20795000       1.12963000      -8.60668700      -2.28539000       6.55154800      -8.61802015      -2.39241998       6.81086675
Fe       1.53173000       7.83266000       3.80603000      -1.65905400      -0.11404600      -0.89610500      -1.46175577      -0.03287056      -0.83891935
Fe       1.74486000       7.54079000       7.38183000      -0.77016800      -2.84296400      -4.33487700      -0.39352465      -2.98535189      -4.55438702
Fe       3.56186000       0.47927000       3.91303000      -0.80393000       0.09573100       0.48864500      -0.64871891       0.49233531       0.85427276
Fe       2.69544000       3.32913000       8.35331000      -0.91529500      -1.37466700      -1.27096300      -0.95280404      -1.08768734      -1.47009428
Fe       2.50726000       5.55253000       3.00891000      -3.70845900       1.84549900       7.06229400      -3.54932293       1.62206343       6.99354589
Fe       2.66303000       5.37632000       6.86323000       1.34009500       0.58131700      -1.07274400       1.04180899       0.48399306      -0.81908405
Fe       3.68938000       7.29321000       2.47293000       0.29505500       3.79600900       1.74225700       0.33588188       3.74208676       1.78833845
Fe       5.40299000       0.02262000       0.28245000       1.09754400       1.37381700      -0.56286500       1.09963391       1.40580012      -0.77485374
Fe       4.76280000       2.19193000       4.29489000       2.19427600      -1.08862000       1.63743200       2.07146395      -1.00124451       1.15610282
Fe       5.87698000       1.49013000       6.50500000      -2.18598600       1.19192000       1.46600100      -2.20928566       1.30668864       1.43560489
Fe       4.48055000       3.07540000       2.45780000      -2.84622400       3.45030800      -0.21057900      -2.47352831       3.08463207      -0.14706077
Fe       4.83688000       2.94002000       8.43684000       0.49024200       0.44080300      -1.29325900       0.51377934       0.55374757      -1.20122813
Fe       4.30622000       5.52054000       0.10302000       2.65356400      -0.61538500      -1.14058600       2.37227756      -0.62585994      -1.37244944
Fe       4.85577000       5.68427000       3.22538000     -13.58892600      -0.68123400       5.77741200     -13.16257614      -1.15497579       5.18364634
Fe       5.84993000       6.63152000       7.18110000       2.03459500      -3.33577600       1.78593900       1.92278807      -3.41491723       1.44914243
Fe       4.72930000       7.89323000       6.40878000      -2.94043200       3.01534400      -1.87259700      -2.87688733       3.10367134      -1.70246828
Fe       8.57594000       0.14462000       1.86915000       1.84558700       1.97931100       0.93135500       1.46005395       1.89530262       0.84104817
Fe       7.40625000       0.48915000       3.55738000      -1.33936600      -1.43260200       0.55771200      -1.31533740      -1.30862008       0.54061751
Fe       7.75862000       0.67902000       8.04704000      -0.77003900       0.72030400      -0.65512800      -0.85653203       0.70577878      -0.61155560
Fe       7.46465000       2.57205000       3.33742000      -0.45460800       2.06343200      -2.84623400      -0.56930735       1.75835959      -2.23255412
Fe       7.51645000       2.84284000       5.46098000       2.51807600      -2.81291200       2.63874200       2.29833002      -2.69781398       2.17251935
Fe       7.11718000       5.17386000       0.62422000       0.27145600      -0.82583000       2.77819000       0.05583372      -0.90728867       2.78107607
Fe       6.51145000       4.47616000       5.19496000      -3.21759500       3.62253300      -0.00675500      -3.36473522       3.23291345       0.15109678
Fe       6.97347000       7.04758000       1.38649000       0.48266800       2.22145100      -0.50307700       0.50219421       2.77169321      -0.55574722
Fe       8.10334000       7.04288000       4.95886000      -1.48616400      -0.51613500      -4.54135800      -1.64383954      -0.75658150      -4.58547596
Fe       8.05258000       6.29152000       6.99912000      -5.65637200      -2.13614500       5.60244700      -5.68033405      -2.30985428       5.63251220
B        0.04547000       6.36131000       2.63966000       0.55615900       2.89343100      -0.65487300       0.55721388       2.95109138      -0.85030930
B        0.78760000       6.41749000       6.11718000       8.96866000      -1.86484800      -4.88573100       8.92892811      -1.43658058      -4.93925264
B        3.88199000       6.18665000       5.24393000       2.40535200      -4.52291800       1.86480100       2.60707953      -4.31093430       2.04791441
B        2.47083000       6.65446000       5.06009000      -4.16668300       1.63659100       0.72991100      -4.50228496       1.28183488       0.81685976
B        5.17040000       4.43420000       7.03607000      -0.49407400       0.60408200      -0.07071100      -0.34749491       0.70968511      -0.13772409
B        4.98477000       7.02089000       1.26112000       2.69184300      -1.01715200      -0.23867300       2.90971237      -1.31708615      -0.01272902
B        6.14089000       6.45683000       4.80405000      -1.30138100       0.95082900       0.28639900      -1.05959571       0.90233904       0.46919218
B        6.13162000       8.43071000       2.35098000      -2.35722900       0.80301000      -1.64851700      -2.19192437       0.84351818      -1.26546949
B        4.56795000       7.37597000       4.51000000       1.08899100       1.91413600      -2.46424300       1.33892277       1.69080749      -2.22514431
B        8.43856000       4.83510000       4.92882000       1.36608400      -0.27092900       0.38228600       1.14068330      -0.11635865       0.58309618
Si       2.33663000       0.88304000       1.86191000       0.20378000       0.67375300       0.48954000      -0.07063567       0.37704788       0.43757722
Si       2.47060000       2.01787000       5.82671000       3.44729400      -2.77017900       0.28477400       3.25807982      -2.74405410       0.10112129
Si       3.99754000       3.90209000       5.28043000      -0.52173300       2.24871100       0.56615500      -0.61681114       2.42781145       0.65077371
Si       2.88628000       4.75003000       1.35877000       1.35107300      -4.46219800      -1.82910400       1.39776906      -4.06988946      -1.76899650
Si       3.44659000       7.61488000       0.02362000       9.22872600       3.26579400      -6.84666600       8.97600267       3.18692315      -7.07204248
Si       5.84087000       1.88518000       1.47006000       1.98939500      -2.63771400       1.14825400       1.98081822      -2.50044519       1.29583180
Si       7.50409000       0.39762000       5.72805000       0.28887500      -1.01436500       1.80494100       0.42977686      -0.84325887       1.76463656
Si       7.89236000       2.62826000       0.60996000       1.84518100       0.08413200       2.31178300       1.98125235       0.24452269       2.12120269
Si       7.19466000       4.02992000       7.62402000      -0.41245200      -1.87945400      -6.47557700      -0.18545395      -1.70375818      -6.41949590
Si       6.49362000       5.60380000       2.83650000      15.40678400      -2.74500600      -1.21396800      15.38564532      -3.03757283      -1.19861383
54
Lattice="8.579999685 0.0 0.0 0.0 8.579999685 0.0 0.0 0.0 8.5799996" Properties=species:S:1:pos:R:3:REF_forces:R:3:MACE_forces:R:3 config_type=random2 REF_energy=-360.24557691 MACE_energy=-360.11806970900545 pbc="T T T"
Fe       0.15602000       0.52795000       0.11788000       1.50118900       2.12647900      -0.69082500       1.52975875       2.03842921      -0.98607241
Fe       1.70518000       0.91529000       6.12502000      -0.09988400      -0.42418000       1.68375300      -0.17944962      -0.38669823       1.59896026
Fe       1.54966000       2.36852000       1.06669000      -5.85953100      -4.36721300       0.56745300      -6.83262453      -4.80468958       0.45352552
Fe       1.02665000       1.75632000       4.18103000      -1.38605400      -0.36095700      -0.43690800      -1.53766110       0.19080158      -0.17096512
Fe       1.06359000       3.94918000       2.34805000       0.69749000      -0.85774700       5.96520700       0.55215403      -0.29913339       6.48546308
Fe       1.28487000       3.20120000       7.58043000       3.39307500      -0.26984800       2.42083000       3.16241775      -0.53204664       1.33877953
Fe       1.14161000       6.71049000       0.83829000      -0.40864800      -2.86541500      -0.56258600      -0.41016695      -2.52561334      -0.71663574
Fe       0.40301000       6.75556000       3.85346000      -3.54681400      -2.71605200       0.53524600      -3.50997051      -2.39031181       0.64320480
Fe       2.42406000       1.07205000       2.77097000       0.17396900      -0.59415600       0.13555400       0.41166533      -0.48308775       0.03182853
Fe       3.41034000       2.05710000       0.70145000       6.42881300      -5.02873900      -4.48941300       6.98205435      -5.04534777      -4.14590507
Fe       2.29718000       4.17321000       0.18921000       8.27262100       4.83321100       0.27939000       8.18006587       4.79304742      -0.03018103
Fe       3.97525000       3.01933000       3.45467000      -3.56965100      -1.67327500       4.17175000      -3.51942287      -1.53551888       4.22868162
Fe       2.31555000       3.12797000       5.45181000      -0.56424300       1.47291700      -0.72207500      -0.56341908       1.27064100      -0.83701594
Fe       4.14051000       4.67154000       7.32496000      -1.85033600      -2.49705600      -3.03953400      -1.52626003      -2.03577317      -3.15351148
Fe       3.30273000       6.05901000       1.51938000       1.42520300      -0.93348100       5.20094300       1.29965825      -1.02666182       5.34195801
Fe       2.31083000       5.81669000       6.24071000      -1.65695700      -1.97484000      -1.83228700      -1.91338074      -2.03013851      -1.89538456
Fe       4.23546000       8.36043000       1.12111000      -3.48153700      -2.75255200      -1.29453300      -3.33627636      -2.68024916      -1.30132847
Fe       3.23987000       7.53891000       5.51734000      -0.21665400       2.51274300      -1.38503500      -0.14218667       2.00805054      -1.01491342
Fe       5.12946000       0.94550000       4.94399000      -0.11299800       0.77990500       2.32699000       0.09321998       0.80535395       2.08458666
Fe       5.13589000       1.13489000       7.61232000      -2.35192000      -2.47185700      -1.54459000      -1.94804701      -2.32261918      -1.25937701
Fe       5.77866000       4.23588000       4.79030000      -1.29299100      -0.33304200      -0.54889500      -1.36048997      -0.54945974      -0.51086448
Fe       5.21312000       5.43128000       0.36944000       0.48480600      -1.77457800       2.45456000       0.23245839      -1.76105341       2.40778787
Fe       6.29545000       5.29844000       6.90813000       0.27479600       0.56550300      -0.15217800       0.09085158       1.15865657       0.34805495
Fe       6.35692000       7.06671000       0.82505000      -3.36239600      -4.01210700       4.38604600      -3.45453788      -4.11579064       4.43933046
Fe       5.03038000       6.83997000       3.89378000      -5.77025900      -0.16605500       1.32235200      -5.57039053       0.21756137       1.01732047
Fe       4.78652000       7.09563000       7.12705000       1.46620700       1.40382700      -0.48359700       1.59333870       1.33820680      -0.34153068
Fe       6.27758000       8.37043000       3.24816000       2.63331000      -0.39926000      -1.09188300       2.33425662      -0.58256426      -1.31473594
Fe       6.66778000       2.25230000       0.37441000       0.46215200       5.56438900      -2.13561400       0.75161881       5.47493484      -1.83185669
Fe       7.36634000       1.80676000       3.25099000      -1.00720600       0.66121700       0.12043400      -0.86438663       0.33805537      -0.03449280
Fe       7.20940000       4.10018000       1.95385000       2.57566800      -1.48999600      -0.86593000       2.33061579      -1.90707265      -0.65135975
Fe       7.94471000       3.72778000       4.77598000       1.55881000      -0.58188700      -6.79754900       1.68395931      -0.53927936      -6.37723843
Fe       6.75768000       6.07296000       3.66358000       3.93722500      -2.42586800      -1.10133600       3.99188995      -2.51959671      -1.07388190
Fe       8.21458000       8.08402000       1.87626000      -0.44151800      -0.26603100       3.30322800      -0.66598290      -0.23166528       3.50141455
Fe       7.36868000       8.08437000       5.29726000       0.43877100       0.17228300       0.46133200       0.61840654      -0.04406152       0.64411898
B        0.46931000       2.86958000       6.22296000      -3.80288900      -1.09387000      -7.26709800      -3.03446777      -1.06387299      -6.70752141
B        0.79690000       4.64043000       0.78277000      -5.70109500       2.77781200      -1.37694100      -5.28833270       2.82695548      -1.42638460
B        0.73908000       6.06271000       7.33363000       1.54267100       0.77045400       1.64299100       1.04686582       0.56656941       1.54193835
B        1.70695000       8.30838000       1.61351000       0.69871300       2.04304800      -1.19793700       0.63207462       1.78843343      -1.09696301
B        1.06367000       7.86886000       5.17764000       0.71186900       0.56033400       0.46457700       0.41499461       0.63699932       0.39370092
B        3.05807000       3.31560000       1.75331000       0.60245100       5.37233400       4.97576700       0.57740220       5.25619344       4.83869738
B        4.11376000       3.15831000       5.72174000       0.08260300      -0.21738500      -1.78505000       0.20081613       0.01390252      -1.67951069
B        8.14039000       2.18508000       1.52896000       1.19434400      -0.12824400       0.69320900       1.24459564      -0.03168241       0.66893542
B        8.39030000       2.05308000       7.53614000      -1.77848500      -1.83154800       0.20619400      -1.61075072      -1.81293541       0.46735911
B        8.30153000       5.45928000       1.83309000       1.20856300       4.13672900       0.40624600       1.59315716       4.45585443       0.41348782
Si       3.00019000       6.35380000       8.16132000      -1.19834300       2.89758700      -2.26894600      -1.42820470       2.70561153      -1.87866214
Si       2.24659000       7.26192000       3.26474000       4.14484200       1.08172900      -0.14133900       4.11449155       0.82199691      -0.19136860
Si       6.17884000       0.45233000       0.83743000       1.44634700      -0.49623800       2.03270200       1.40771284      -0.22527366       1.76879153
Si       4.64336000       1.00099000       2.78500000      -0.82361900       2.27383700       0.17243100      -0.73943860       2.20492319       0.32350026
Si       5.30071000       3.73874000       2.23321000      -1.13801900       1.40766600      -1.97244000      -1.20966181       1.24536789      -2.23634758
Si       5.60784000       3.05108000       6.86204000       1.78633600       1.16462800       1.21292600       1.68211650       0.81766744       1.18215917
Si       7.37786000       2.01899000       5.63982000      -1.85188300      -4.99033500       0.63073900      -2.12197415      -5.06336615       0.26644190
Si       7.84836000       3.98525000       7.99758000      -1.73886300       0.76335000       2.02910200      -1.69668603       1.17103952       1.44698247
Si       8.18070000       5.21779000       5.96080000       2.99103300       5.24835700       0.50260400       2.60248214       5.20345788       0.21436253
Si       7.85457000       7.16215000       8.23590000       2.87892000      -0.59652700      -5.12003700       3.10907065      -0.80314761      -5.22736316
54
Lattice="8.579999685 0.0 0.0 0.0 8.579999685 0.0 0.0 0.0 8.5799996" Properties=species:S:1:pos:R:3:REF_forces:R:3:MACE_forces:R:3 config_type=random2 REF_energy=-365.22575864 MACE_energy=-365.6581790259429 pbc="T T T"
Fe       0.20349000       0.43692000       2.30233000      -1.19759000      -0.05132300      -0.31775900      -1.26628371      -0.06659136      -0.32205571
Fe       0.51917000       1.17401000       4.74302000       2.78563200      -1.27976500      -1.64547000       2.71265442      -1.37264424      -1.73936241
Fe       1.38751000       3.23006000       6.69712000      -2.06380500      -0.45204200      -2.64816400      -1.50066806      -0.13216729      -2.68099517
Fe       1.21974000       4.87952000       0.40100000      -2.47724400       1.11533000      -0.99296900      -2.47142106       1.04233464      -0.45243262
Fe       1.97573000       5.54310000       2.88466000       6.09622800      -0.22804000       0.22274800       6.15947034      -0.08809521       0.19339662
Fe       0.24724000       4.67275000       3.31002000       1.25657100      -3.26273900       0.49527800       1.58937467      -3.87078216       0.55711928
Fe       2.05879000       7.00765000       1.04459000      -2.72119300      -0.03775000      -3.04789100      -2.74240775      -0.31111063      -3.15517204
Fe       1.63798000       7.40648000       3.82765000       2.29920100       2.88972100       2.98139100       2.05367366       2.73770685       2.55848998
Fe       1.09226000       7.58547000       7.07334000       0.04029200       2.73525000       0.31147100       0.05563381       2.41881305       0.25416052
Fe       3.60090000       0.57134000       3.89250000       0.69494200       2.40229900      -4.05887500       0.55287098       2.89669664      -4.13550693
Fe       2.65991000       1.09437000       7.86419000      -1.14458000      -0.85522600       2.26630900      -0.99767126      -0.98170832       2.09203099
Fe       2.24446000       3.37294000       4.01156000       1.54847400      -3.07575300       1.59871500       1.33825119      -2.96838611       1.74322676
Fe       2.60814000       3.36778000       8.29224000       2.86850300      -0.48023700       1.04871300       2.82314109      -0.62454735       0.36609141
Fe       3.82657000       5.53146000       0.39663000      -0.49871600      -1.08215200       0.37044000      -0.85604519      -0.95633878       0.45104965
Fe       2.40237000       5.93309000       6.71186000       1.66007800      -1.91531100      -0.54914500       1.57668892      -1.81501908      -0.14384025
Fe       3.83124000       7.22984000       2.26002000       1.16293400      -0.34641600       3.49778100       1.37130817      -0.61754909       3.43985022
Fe       3.99920000       8.45773000       5.51692000       1.28512400      -7.68078000       2.95796600       1.89204802      -7.44005054       3.69012790
Fe       5.22444000       0.95706000       0.14198000      -0.41599900      -1.79364900       3.26990900      -0.36205874      -1.46764339       3.18338933
Fe       5.45558000       1.13972000       6.57432000       2.20837100       0.47887400      -0.56599300       2.27119808       0.19402553      -0.74340800
Fe       5.26466000       2.27135000       4.41008000      -0.17510500       1.86037900      -0.00881300      -0.59327150       1.86185895      -0.10596295
Fe       4.35232000       3.74890000       2.00519000       5.41658000      -2.25214300      -0.60695800       5.43865244      -2.58075086      -0.83064394
Fe       4.94500000       3.07245000       8.16952000       0.69532600       1.35147200      -0.28201500       0.56827745       1.25510940      -0.35187776
Fe       4.72549000       5.27621000       3.27777000       2.48098000       1.19615400       0.41763500       2.62405271       1.82669911       0.30539673
Fe       5.66786000       6.71115000       7.78034000       3.01066600       0.48468200      -0.64974500       3.04450763       0.29182839      -0.25079493