54
Lattice="8.579999685 0.0 0.0 0.0 8.579999685 0.0 0.0 0.0 8.5799996" Properties=species:S:1:pos:R:3:REF_forces:R:3:MACE_forces:R:3 config_type=random2 REF_energy=-363.25552073 MACE_energy=-364.59952240125426 pbc="T T T"
Fe       0.14554000       0.51178000       1.72883000       1.59155600       1.69646400       0.64593400       1.57291308       1.64572639       0.39808746
Fe       0.72405000       1.36449000       4.41023000      -1.29379600       2.22691100       1.75321500      -1.63975573       2.35350129       2.21011981
Fe       1.28013000       1.28154000       8.53445000       0.26225800      -1.72780100      -2.25359700       0.84037052      -1.09821920      -1.94284732
Fe       1.78304000       2.91528000       3.50993000      -2.09245800       1.32746400      -0.69437800      -1.88301742       1.07674492      -0.84396530
Fe       0.75698000       4.21862000       5.92458000       2.67674200       0.07621400       0.69283600       2.60441711       0.07993304       0.55952112
Fe       0.63053000       4.76090000       0.44438000       2.96454100       3.11113800      -1.75676200       2.86255187       2.67403027      -1.92521667
Fe       0.02633000       4.52370000       2.53911000       1.51365300       0.35504600       1.69572400       1.14139299       0.06121384       2.24438283
Fe       1.82831000       7.54412000       1.78795000       0.87467800      -2.32144700      -3.97784800       1.04183499      -2.34204989      -3.87267777
Fe       1.35484000       8.36643000       3.60252000      -0.64195500      -5.00077700       1.37065900      -0.59067115      -4.79047900       0.96261729
Fe       0.00278000       7.66371000       8.06149000       0.84677900       3.28625900       0.13433000       1.03557930       3.81059551       0.11715152
Fe       3.20977000       0.65911000       4.08840000       1.20299600       0.08567500       0.16844000       1.60473958       0.30809983       0.40035407
Fe       3.81428000       3.40248000       2.69765000       1.92092000      -1.15662700      -3.56356700       1.67068738      -0.96522777      -3.35768384
Fe       2.27468000       3.19194000       8.08871000       0.59526400       1.04068000       0.20830700       0.71101484       0.77848158      -0.04730753
Fe       2.36527000       5.68967000       3.77721000      -1.32118300       3.62799500      -7.73735100      -0.85834686       3.41195230      -7.58444249
Fe       3.31539000       4.98429000       6.86176000      -4.76733700       1.31799100      -0.15025300      -4.88842379       1.38145549      -0.33356286
Fe       4.14047000       8.03537000       2.57836000      -0.12326500       0.71998900      -4.54677200      -0.32628055       0.30664255      -4.43832818
Fe       2.33721000       7.37963000       6.97430000      -3.25408300      -0.42617300       0.11952900      -2.97648838      -0.10582061       0.00842659
Fe       5.49649000       2.81617000       0.00560000      -0.38440000       1.06482400       2.77431200      -0.69796476       0.85628593       2.99549078
Fe       4.90462000       2.19117000       4.68344000      -0.30939700      -0.22068900       0.15476200      -0.38377513      -0.29649414       0.17379048
Fe       6.05887000       2.28929000       6.72430000      -2.40764300      -1.20527600      -2.21344100      -2.44620736      -1.29528764      -2.74685576
Fe       4.96066000       5.38738000       0.05685000      -5.52595300       0.24353800      -1.43029300      -5.94845932       0.43815715      -1.13008745
Fe       4.63277000       5.58711000       3.43909000       0.15670200       0.36247400      -2.39573300       0.59257217       0.53820070      -1.83141443
Fe       5.47216000       4.57113000       5.11890000       2.10490400      -2.93581200      -1.75472200       2.23557779      -2.55504425      -1.89562084
Fe       6.30403000       5.90903000       6.68980000       0.34040700       3.61786100       1.57378600      -0.31607456       3.83015410       0.70951271
Fe       5.70388000       7.66893000       0.29664000      -0.15104200       0.56316800      -2.35128400      -0.26947528       0.72029321      -2.71551273
Fe       4.59755000       7.72233000       6.72559000       2.86127800       5.76095300       2.11819400       3.09576296       5.48055554       2.00320686
Fe       6.69102000       2.72189000       3.39445000       0.82746800       0.11261800      -1.32677500       0.65716036      -0.00566565      -1.32271016
Fe       7.82489000       2.79083000       5.52653000       0.57260400      -7.67863200      -2.50501700       0.43326794      -7.53635184      -2.39893081
Fe       7.54254000       1.43077000       8.06710000       0.33636900      -1.31354300       0.06591500       0.62343393      -1.11069902       0.32061317
Fe       6.83339000       5.01847000       0.43089000       4.01851000      -1.75305200       1.07569000       4.44729920      -1.44718755       1.37644737
Fe       7.80095000       6.57346000       4.77816000       4.73736500       1.98019500       6.49954800       4.67335685       1.97284487       6.57814583
Fe       8.33789000       5.95118000       7.24348000       2.01691100      -0.30640800      -0.91254000       2.30210864      -0.51444626      -1.13408558
Fe       7.34696000       7.25711000       1.28757000       7.90645500      -4.42309700       1.23948600       7.78053086      -4.70785687       1.52136041
Fe       7.43242000       8.44439000       3.63072000      -1.39910700       0.40142200      -0.15691100      -1.37621918       0.52286107      -0.07233589
B        1.97996000       5.43579000       5.32338000      -0.33243100       1.61500000       5.95131600      -0.52618969       1.43294770       5.90231023
B        0.49461000       6.49135000       2.99766000      -0.31705400       0.59177900      -0.01053800      -0.26764823       0.46056217       0.18838305
B        3.37504000       7.40708000       5.38089000      -5.99801200       0.47595800      -0.02338300      -5.91375364       1.01007305       0.41293196
B        4.96515000       4.52318000       6.89092000       3.31349400      -3.18234200       1.78657900       3.13392003      -3.13300304       1.35900779
B        5.58896000       5.84005000       1.76460000       0.64861700       0.75442100       1.21706300       0.60388232       0.68779640       0.93059539
B        5.83801000       7.06270000       4.90751000       3.37632700      -0.49791000      -0.21154100       3.28627341      -0.44089215       0.15043287
B        4.61582000       6.31906000       5.77296000      -1.03151500      -4.56273800      -3.32360500      -0.92860491      -4.92765604      -2.73069675
B        5.97309000       7.45393000       2.31973000      -2.96928400       1.09257400       2.97626800      -2.99275803       1.05652329       3.23317332
B        4.33874000       7.29192000       4.22868000       1.12064900       0.81723600       0.43610100       0.78707241       0.73129330      -0.57382436
B        7.72559000       4.19378000       4.57689000      -0.45124300       3.98855700      -2.90870800      -0.39132106       3.81492003      -2.77824725
Si       2.36775000       1.39684000       1.89633000       1.21065900       0.18949800       0.44841900       1.25375819      -0.05329266       0.45151059
Si       2.71399000       1.54914000       5.95224000      -0.97150700       1.13117000       2.76442000      -0.81007480       0.80354702       2.51315410
Si       3.28955000       3.98982000       4.60004000       0.74842900      -0.88155400       4.79535100       0.99281963      -0.88893326       4.45106253
Si       2.89881000       5.25907000       1.19827000      -0.23285300      -0.18968200       0.16399200      -0.26609079      -0.31861513       0.18938204
Si       3.70049000       7.63232000       0.08133000      -4.14839400      -0.17279700       2.68798100      -4.23056934      -0.02327137       2.62299976
Si       6.67656000       0.73535000       1.44116000      -3.60544400       3.39071100       0.89862900      -3.50026120       3.47218560       1.12999346
Si       7.67019000       0.53497000       5.89855000      -0.08039200      -1.77360700       0.76356800      -0.34185645      -1.64874996       0.54904405
Si       8.29725000       2.99648000       0.96254000      -1.13453400      -3.27728700       0.33879000      -1.44479752      -3.20594648       0.41880878
Si       7.40923000       4.02958000       6.96965000      -1.81600400       0.96913600       4.48163600      -1.48074282       0.51861312       4.43576260
Si       7.01249000       5.74161000       3.32202000      -3.98624800      -2.98766700      -5.79576500      -4.28847038      -2.82500149      -5.84142683
54
Lattice="8.579999685 0.0 0.0 0.0 8.579999685 0.0 0.0 0.0 8.5799996" Properties=species:S:1:pos:R:3:REF_forces:R:3:MACE_forces:R:3 config_type=random2 REF_energy=-358.18453515 MACE_energy=-359.6270616323126 pbc="T T T"
Fe       0.67784000       1.42600000       4.73270000       0.73286300      -0.83759600      -0.86363300       0.72734251      -0.41555099      -1.11899335
Fe       1.80600000       0.78628000       7.98152000      -0.21501700       4.54628000       1.47421800      -0.28326032       4.69648670       1.45744388
Fe       1.72820000       3.31227000       3.62866000       1.47689300      -1.16474500       0.84209400       1.79530602      -1.42795110       0.87507678
Fe       1.26949000       3.60873000       6.28045000      -2.30845800       2.47241900      -0.02322800      -2.69869489       2.70281574       0.33449366
Fe       0.99472000       5.31230000       0.60430000      -2.51259200      -1.02653900      -1.17393400      -2.49763345      -1.02475140      -1.39777427
Fe       0.20061000       4.55674000       2.88710000      -1.84897700      -0.58032100      -0.41954500      -1.83408969      -0.62907631      -0.36570850
Fe       0.17403000       7.49971000       0.22557000      -1.18320700      -1.63527800      -1.18960000      -1.32987153      -1.73356044      -1.05361479
Fe       2.11762000       7.20795000       1.12963000      -8.60668700      -2.28539000       6.55154800      -8.71182337      -2.50623221       6.89001162
Fe       1.53173000       7.83266000       3.80603000      -1.65905400      -0.11404600      -0.89610500      -1.47941750       0.00491681      -0.87621237
Fe       1.74486000       7.54079000       7.38183000      -0.77016800      -2.84296400      -4.33487700      -0.49522574      -3.07189210      -4.57007531
Fe       3.56186000       0.47927000       3.91303000      -0.80393000       0.09573100       0.48864500      -0.73434751       0.52128012       0.84274491
Fe       2.69544000       3.32913000       8.35331000      -0.91529500      -1.37466700      -1.27096300      -0.92858673      -1.13470587      -1.55944773
Fe       2.50726000       5.55253000       3.00891000      -3.70845900       1.84549900       7.06229400      -3.62783680       1.65476056       7.06909484
Fe       2.66303000       5.37632000       6.86323000       1.34009500       0.58131700      -1.07274400       1.07847914       0.37262755      -0.80481952
Fe       3.68938000       7.29321000       2.47293000       0.29505500       3.79600900       1.74225700       0.25259955       3.77252621       1.63903060
Fe       5.40299000       0.02262000       0.28245000       1.09754400       1.37381700      -0.56286500       1.23885252       1.48103348      -0.82323840
Fe       4.76280000       2.19193000       4.29489000       2.19427600      -1.08862000       1.63743200       2.14813576      -1.00881927       1.26315553
Fe       5.87698000       1.49013000       6.50500000      -2.18598600       1.19192000       1.46600100      -2.24528592       1.36209619       1.44394275
Fe       4.48055000       3.07540000       2.45780000      -2.84622400       3.45030800      -0.21057900      -2.54233444       3.11259574      -0.18196666
Fe       4.83688000       2.94002000       8.43684000       0.49024200       0.44080300      -1.29325900       0.55441276       0.63539788      -1.28943967
Fe       4.30622000       5.52054000       0.10302000       2.65356400      -0.61538500      -1.14058600       2.44982789      -0.67005411      -1.37507800
Fe       4.85577000       5.68427000       3.22538000     -13.58892600      -0.68123400       5.77741200     -13.13518116      -1.08962046       5.26888419
Fe       5.84993000       6.63152000       7.18110000       2.03459500      -3.33577600       1.78593900       2.04299923      -3.49886526       1.56052044
Fe       4.72930000       7.89323000       6.40878000      -2.94043200       3.01534400      -1.87259700      -2.93811413       3.22883366      -1.70083391
Fe       8.57594000       0.14462000       1.86915000       1.84558700       1.97931100       0.93135500       1.51733939       1.90719680       0.75492344
Fe       7.40625000       0.48915000       3.55738000      -1.33936600      -1.43260200       0.55771200      -1.40632462      -1.38786116       0.48823370
Fe       7.75862000       0.67902000       8.04704000      -0.77003900       0.72030400      -0.65512800      -0.92604582       0.69746016      -0.59049872
Fe       7.46465000       2.57205000       3.33742000      -0.45460800       2.06343200      -2.84623400      -0.58193497       1.88533499      -2.35939927
Fe       7.51645000       2.84284000       5.46098000       2.51807600      -2.81291200       2.63874200       2.40908291      -2.87500423       2.27565948
Fe       7.11718000       5.17386000       0.62422000       0.27145600      -0.82583000       2.77819000       0.14179558      -0.99755678       2.69780197
Fe       6.51145000       4.47616000       5.19496000      -3.21759500       3.62253300      -0.00675500      -3.43410938       3.38910542       0.08812579
Fe       6.97347000       7.04758000       1.38649000       0.48266800       2.22145100      -0.50307700       0.51760447       2.88800886      -0.52811186
Fe       8.10334000       7.04288000       4.95886000      -1.48616400      -0.51613500      -4.54135800      -1.70734188      -0.73843253      -4.66912103
Fe       8.05258000       6.29152000       6.99912000      -5.65637200      -2.13614500       5.60244700      -5.73951060      -2.34954942       5.86226763
B        0.04547000       6.36131000       2.63966000       0.55615900       2.89343100      -0.65487300       0.55688900       2.95692269      -0.89372072
B        0.78760000       6.41749000       6.11718000       8.96866000      -1.86484800      -4.88573100       9.09444189      -1.49048091      -5.07466857
B        3.88199000       6.18665000       5.24393000       2.40535200      -4.52291800       1.86480100       2.69708371      -4.59811306       2.09893815
B        2.47083000       6.65446000       5.06009000      -4.16668300       1.63659100       0.72991100      -4.57538371       1.40861466       0.80717230
B        5.17040000       4.43420000       7.03607000      -0.49407400       0.60408200      -0.07071100      -0.38165309       0.70564838      -0.10404255
B        4.98477000       7.02089000       1.26112000       2.69184300      -1.01715200      -0.23867300       2.92974506      -1.28225205       0.00045091
B        6.14089000       6.45683000       4.80405000      -1.30138100       0.95082900       0.28639900      -1.11986953       0.94867745       0.38092969
B        6.13162000       8.43071000       2.35098000      -2.35722900       0.80301000      -1.64851700      -2.22356233       0.87185859      -1.29519476
B        4.56795000       7.37597000       4.51000000       1.08899100       1.91413600      -2.46424300       1.33842528       1.73575477      -2.27568112
B        8.43856000       4.83510000       4.92882000       1.36608400      -0.27092900       0.38228600       1.18097053      -0.08267275       0.53454279
Si       2.33663000       0.88304000       1.86191000       0.20378000       0.67375300       0.48954000       0.00609517       0.45307867       0.45436898
Si       2.47060000       2.01787000       5.82671000       3.44729400      -2.77017900       0.28477400       3.39100394      -2.77364527       0.12648989
Si       3.99754000       3.90209000       5.28043000      -0.52173300       2.24871100       0.56615500      -0.65165429       2.48480921       0.69199844
Si       2.88628000       4.75003000       1.35877000       1.35107300      -4.46219800      -1.82910400       1.41969435      -4.18235497      -1.79491897
Si       3.44659000       7.61488000       0.02362000       9.22872600       3.26579400      -6.84666600       9.11274912       3.26604435      -7.01049106
Si       5.84087000       1.88518000       1.47006000       1.98939500      -2.63771400       1.14825400       2.06001708      -2.57135435       1.40348359
Si       7.50409000       0.39762000       5.72805000       0.28887500      -1.01436500       1.80494100       0.39756727      -0.99745848       1.84525975
Si       7.89236000       2.62826000       0.60996000       1.84518100       0.08413200       2.31178300       1.96731395       0.27936469       2.23529117
Si       7.19466000       4.02992000       7.62402000      -0.41245200      -1.87945400      -6.47557700      -0.20775793      -1.73237988      -6.56690396
Si       6.49362000       5.60380000       2.83650000      15.40678400      -2.74500600      -1.21396800      15.41107723      -3.15305498      -1.11038181
54
Lattice="8.579999685 0.0 0.0 0.0 8.579999685 0.0 0.0 0.0 8.5799996" Properties=species:S:1:pos:R:3:REF_forces:R:3:MACE_forces:R:3 config_type=random2 REF_energy=-360.24557691 MACE_energy=-361.2518708874769 pbc="T T T"
Fe       0.15602000       0.52795000       0.11788000       1.50118900       2.12647900      -0.69082500       1.57556602       2.14336879      -0.98861570
Fe       1.70518000       0.91529000       6.12502000      -0.09988400      -0.42418000       1.68375300      -0.17231277      -0.36177330       1.55187243
Fe       1.54966000       2.36852000       1.06669000      -5.85953100      -4.36721300       0.56745300      -6.89274288      -4.85332110       0.43567910
Fe       1.02665000       1.75632000       4.18103000      -1.38605400      -0.36095700      -0.43690800      -1.49511574       0.18653464      -0.20157523
Fe       1.06359000       3.94918000       2.34805000       0.69749000      -0.85774700       5.96520700       0.58993719      -0.37530957       6.63297678
Fe       1.28487000       3.20120000       7.58043000       3.39307500      -0.26984800       2.42083000       3.25659405      -0.64783104       1.36888952
Fe       1.14161000       6.71049000       0.83829000      -0.40864800      -2.86541500      -0.56258600      -0.40894280      -2.48077068      -0.67118550
Fe       0.40301000       6.75556000       3.85346000      -3.54681400      -2.71605200       0.53524600      -3.54307399      -2.47356141       0.70918303
Fe       2.42406000       1.07205000       2.77097000       0.17396900      -0.59415600       0.13555400       0.29935368      -0.50972566      -0.01552121
Fe       3.41034000       2.05710000       0.70145000       6.42881300      -5.02873900      -4.48941300       7.06889357      -5.13429764      -4.28302183
Fe       2.29718000       4.17321000       0.18921000       8.27262100       4.83321100       0.27939000       8.24128594       4.82407775       0.10219280
Fe       3.97525000       3.01933000       3.45467000      -3.56965100      -1.67327500       4.17175000      -3.62267758      -1.52953877       4.20814495
Fe       2.31555000       3.12797000       5.45181000      -0.56424300       1.47291700      -0.72207500      -0.65708670       1.22281874      -0.86328598
Fe       4.14051000       4.67154000       7.32496000      -1.85033600      -2.49705600      -3.03953400      -1.55188886      -2.11032659      -3.17513536
Fe       3.30273000       6.05901000       1.51938000       1.42520300      -0.93348100       5.20094300       1.32884044      -1.10097976       5.45915542
Fe       2.31083000       5.81669000       6.24071000      -1.65695700      -1.97484000      -1.83228700      -2.00994775      -2.05078784      -1.88575323
Fe       4.23546000       8.36043000       1.12111000      -3.48153700      -2.75255200      -1.29453300      -3.41368251      -2.65807796      -1.28295924
Fe       3.23987000       7.53891000       5.51734000      -0.21665400       2.51274300      -1.38503500      -0.14233445       2.10690602      -1.05078982
Fe       5.12946000       0.94550000       4.94399000      -0.11299800       0.77990500       2.32699000       0.11786331       0.78265851       2.20247252
Fe       5.13589000       1.13489000       7.61232000      -2.35192000      -2.47185700      -1.54459000      -2.01871447      -2.37810559      -1.28570059
Fe       5.77866000       4.23588000       4.79030000      -1.29299100      -0.33304200      -0.54889500      -1.32696720      -0.58916968      -0.57150738
Fe       5.21312000       5.43128000       0.36944000       0.48480600      -1.77457800       2.45456000       0.22918799      -1.80915094       2.44107683
Fe       6.29545000       5.29844000       6.90813000       0.27479600       0.56550300      -0.15217800       0.15868159       1.16444558       0.34722304
Fe       6.35692000       7.06671000       0.82505000      -3.36239600      -4.01210700       4.38604600      -3.40901290      -4.26487539       4.46009452
Fe       5.03038000       6.83997000       3.89378000      -5.77025900      -0.16605500       1.32235200      -5.84224874       0.23272256       1.11862485
Fe       4.78652000       7.09563000       7.12705000       1.46620700       1.40382700      -0.48359700       1.73114577       1.37375844      -0.37331135
Fe       6.27758000       8.37043000       3.24816000       2.63331000      -0.39926000      -1.09188300       2.44303343      -0.52936369      -1.31922909
Fe       6.66778000       2.25230000       0.37441000       0.46215200       5.56438900      -2.13561400       0.78271391       5.70851618      -1.94440312
Fe       7.36634000       1.80676000       3.25099000      -1.00720600       0.66121700       0.12043400      -0.88776973       0.33584683      -0.05486658
Fe       7.20940000       4.10018000       1.95385000       2.57566800      -1.48999600      -0.86593000       2.35356259      -1.88810580      -0.64552310
Fe       7.94471000       3.72778000       4.77598000       1.55881000      -0.58188700      -6.79754900       1.75128661      -0.48431649      -6.44941402
Fe       6.75768000       6.07296000       3.66358000       3.93722500      -2.42586800      -1.10133600       4.19386932      -2.61427966      -1.16319855
Fe       8.21458000       8.08402000       1.87626000      -0.44151800      -0.26603100       3.30322800      -0.65905461      -0.26434320       3.67713577
Fe       7.36868000       8.08437000       5.29726000       0.43877100       0.17228300       0.46133200       0.52802980      -0.08492860       0.63442517
B        0.46931000       2.86958000       6.22296000      -3.80288900      -1.09387000      -7.26709800      -3.12614419      -0.96553586      -6.83624860
B        0.79690000       4.64043000       0.78277000      -5.70109500       2.77781200      -1.37694100      -5.28033057       2.88250665      -1.56411067
B        0.73908000       6.06271000       7.33363000       1.54267100       0.77045400       1.64299100       1.02057512       0.60322344       1.53829966
B        1.70695000       8.30838000       1.61351000       0.69871300       2.04304800      -1.19793700       0.70109765       1.80191419      -1.07461217
B        1.06367000       7.86886000       5.17764000       0.71186900       0.56033400       0.46457700       0.46350640       0.65307520       0.33810710
B        3.05807000       3.31560000       1.75331000       0.60245100       5.37233400       4.97576700       0.58358873       5.35936905       4.85754848
B        4.11376000       3.15831000       5.72174000       0.08260300      -0.21738500      -1.78505000       0.23867851      -0.02513155      -1.69377214
B        8.14039000       2.18508000       1.52896000       1.19434400      -0.12824400       0.69320900       1.26051748      -0.02005959       0.66141497
B        8.39030000       2.05308000       7.53614000      -1.77848500      -1.83154800       0.20619400      -1.65964396      -1.82601906       0.53564229
B        8.30153000       5.45928000       1.83309000       1.20856300       4.13672900       0.40624600       1.58886448       4.49276963       0.42840942
Si       3.00019000       6.35380000       8.16132000      -1.19834300       2.89758700      -2.26894600      -1.47898910       2.79320311      -2.00535550
Si       2.24659000       7.26192000       3.26474000       4.14484200       1.08172900      -0.14133900       4.18883254       0.87841131      -0.20581540
Si       6.17884000       0.45233000       0.83743000       1.44634700      -0.49623800       2.03270200       1.41819172      -0.36936756       1.89370360
Si       4.64336000       1.00099000       2.78500000      -0.82361900       2.27383700       0.17243100      -0.71964953       2.24390598       0.20808704
Si       5.30071000       3.73874000       2.23321000      -1.13801900       1.40766600      -1.97244000      -1.28433806       1.24131856      -2.14911024
Si       5.60784000       3.05108000       6.86204000       1.78633600       1.16462800       1.21292600       1.73565827       0.83960039       1.20591585
Si       7.37786000       2.01899000       5.63982000      -1.85188300      -4.99033500       0.63073900      -2.16332655      -5.06407558       0.38733969
Si       7.84836000       3.98525000       7.99758000      -1.73886300       0.76335000       2.02910200      -1.86103598       1.14793114       1.43803990
Si       8.18070000       5.21779000       5.96080000       2.99103300       5.24835700       0.50260400       2.68090826       5.29845942       0.25809664
Si       7.85457000       7.16215000       8.23590000       2.87892000      -0.59652700      -5.12003700       3.09676728      -0.85421255      -5.34572979
54
Lattice="8.579999685 0.0 0.0 0.0 8.579999685 0.0 0.0 0.0 8.5799996" Properties=species:S:1:pos:R:3:REF_forces:R:3:MACE_forces:R:3 config_type=random2 REF_energy=-365.22575864 MACE_energy=-367.0899327014027 pbc="T T T"
Fe       0.20349000       0.43692000       2.30233000      -1.19759000      -0.05132300      -0.31775900      -1.32846629      -0.10139661      -0.31726882
Fe       0.51917000       1.17401000       4.74302000       2.78563200      -1.27976500      -1.64547000       2.86562528      -1.45991265      -1.87577777
Fe       1.38751000       3.23006000       6.69712000      -2.06380500      -0.45204200      -2.64816400      -1.65775854      -0.14692854      -2.78824464
Fe       1.21974000       4.87952000       0.40100000      -2.47724400       1.11533000      -0.99296900      -2.52620646       1.09408969      -0.48100591
Fe       1.97573000       5.54310000       2.88466000       6.09622800      -0.22804000       0.22274800       6.40176953      -0.06294094       0.07108292
Fe       0.24724000       4.67275000       3.31002000       1.25657100      -3.26273900       0.49527800       1.56613422      -3.89538300       0.56809143
Fe       2.05879000       7.00765000       1.04459000      -2.72119300      -0.03775000      -3.04789100      -2.80419034      -0.24064276      -3.24556808
Fe       1.63798000       7.40648000       3.82765000       2.29920100       2.88972100       2.98139100       2.10781574       2.81301674       2.59443275
Fe       1.09226000       7.58547000       7.07334000       0.04029200       2.73525000       0.31147100       0.04347510       2.53796088       0.26686298
Fe       3.60090000       0.57134000       3.89250000       0.69494200       2.40229900      -4.05887500       0.50009976       2.95603445      -4.30825320
Fe       2.65991000       1.09437000       7.86419000      -1.14458000      -0.85522600       2.26630900      -1.00137269      -0.96859080       2.17748478
Fe       2.24446000       3.37294000       4.01156000       1.54847400      -3.07575300       1.59871500       1.38231313      -2.96063146       1.80551655
Fe       2.60814000       3.36778000       8.29224000       2.86850300      -0.48023700       1.04871300       2.99523126      -0.63986536       0.45931930
Fe       3.82657000       5.53146000       0.39663000      -0.49871600      -1.08215200       0.37044000      -0.85854282      -1.07999384       0.53228792
Fe       2.40237000       5.93309000       6.71186000       1.66007800      -1.91531100      -0.54914500       1.59104376      -1.86211793      -0.09739720
Fe       3.83124000       7.22984000       2.26002000       1.16293400      -0.34641600       3.49778100       1.36036694      -0.57105438       3.49966772
Fe       3.99920000       8.45773000       5.51692000       1.28512400      -7.68078000       2.95796600       1.84060156      -7.59589843       3.73083718
Fe       5.22444000       0.95706000       0.14198000      -0.41599900      -1.79364900       3.26990900      -0.27602615      -1.50823247       3.32655073
Fe       5.45558000       1.13972000       6.57432000       2.20837100       0.47887400      -0.56599300       2.35139474       0.13555268      -0.74439143
Fe       5.26466000       2.27135000       4.41008000      -0.17510500       1.86037900      -0.00881300      -0.63554470       1.89999404      -0.08623127
Fe       4.35232000       3.74890000       2.00519000       5.41658000      -2.25214300      -0.60695800       5.48333725      -2.62797661      -0.88618726
Fe       4.94500000       3.07245000       8.16952000       0.69532600       1.35147200      -0.28201500       0.58648436       1.22648856      -0.37466145
Fe       4.72549000       5.27621000       3.27777000       2.48098000       1.19615400       0.41763500       2.66989902       1.82242594       0.27408465
Fe       5.66786000       6.71115000       7.78034000       3.01066600       0.48468200      -0.64974500       3.09996563       0.29680814      -0.14300912