54
Lattice="8.579999685 0.0 0.0 0.0 8.579999685 0.0 0.0 0.0 8.5799996" Properties=species:S:1:pos:R:3:REF_forces:R:3:MACE_forces:R:3 config_type=random2 REF_energy=-363.25552073 MACE_energy=-362.5494608297915 pbc="T T T"
Fe       0.14554000       0.51178000       1.72883000       1.59155600       1.69646400       0.64593400       1.88887231       1.62967662       0.55247389
Fe       0.72405000       1.36449000       4.41023000      -1.29379600       2.22691100       1.75321500      -1.62172036       2.19429078       2.28838272
Fe       1.28013000       1.28154000       8.53445000       0.26225800      -1.72780100      -2.25359700       0.68294445      -0.90929671      -1.80028780
Fe       1.78304000       2.91528000       3.50993000      -2.09245800       1.32746400      -0.69437800      -1.90590108       0.91105774      -0.89100553
Fe       0.75698000       4.21862000       5.92458000       2.67674200       0.07621400       0.69283600       2.51193528      -0.13712251       0.52824462
Fe       0.63053000       4.76090000       0.44438000       2.96454100       3.11113800      -1.75676200       2.68821324       2.68417162      -1.97906282
Fe       0.02633000       4.52370000       2.53911000       1.51365300       0.35504600       1.69572400       1.36926729       0.02259233       2.08337235
Fe       1.82831000       7.54412000       1.78795000       0.87467800      -2.32144700      -3.97784800       1.13572065      -2.21303297      -3.64959379
Fe       1.35484000       8.36643000       3.60252000      -0.64195500      -5.00077700       1.37065900      -0.63361382      -4.59382312       0.99175034
Fe       0.00278000       7.66371000       8.06149000       0.84677900       3.28625900       0.13433000       0.99130026       3.50220412       0.17310433
Fe       3.20977000       0.65911000       4.08840000       1.20299600       0.08567500       0.16844000       1.81733902       0.29511259       0.21206488
Fe       3.81428000       3.40248000       2.69765000       1.92092000      -1.15662700      -3.56356700       1.69908580      -0.94975539      -3.15183546
Fe       2.27468000       3.19194000       8.08871000       0.59526400       1.04068000       0.20830700       0.79303337       0.67984572      -0.09179161
Fe       2.36527000       5.68967000       3.77721000      -1.32118300       3.62799500      -7.73735100      -0.72170544       3.50422433      -7.79028902
Fe       3.31539000       4.98429000       6.86176000      -4.76733700       1.31799100      -0.15025300      -4.66116099       1.25951374      -0.27945907
Fe       4.14047000       8.03537000       2.57836000      -0.12326500       0.71998900      -4.54677200      -0.43004665       0.30395488      -4.21118080
Fe       2.33721000       7.37963000       6.97430000      -3.25408300      -0.42617300       0.11952900      -2.98837687      -0.21251682      -0.06348778
Fe       5.49649000       2.81617000       0.00560000      -0.38440000       1.06482400       2.77431200      -0.89357680       0.72121339       2.85930983
Fe       4.90462000       2.19117000       4.68344000      -0.30939700      -0.22068900       0.15476200      -0.45964503      -0.30570999       0.32695977
Fe       6.05887000       2.28929000       6.72430000      -2.40764300      -1.20527600      -2.21344100      -2.47512839      -1.32421209      -2.67698914
Fe       4.96066000       5.38738000       0.05685000      -5.52595300       0.24353800      -1.43029300      -5.47828136       0.37716721      -0.94494996
Fe       4.63277000       5.58711000       3.43909000       0.15670200       0.36247400      -2.39573300       0.51548928       0.43796503      -1.91053739
Fe       5.47216000       4.57113000       5.11890000       2.10490400      -2.93581200      -1.75472200       2.28818212      -2.50784198      -2.09207315
Fe       6.30403000       5.90903000       6.68980000       0.34040700       3.61786100       1.57378600      -0.08832326       3.46336791       0.78088939
Fe       5.70388000       7.66893000       0.29664000      -0.15104200       0.56316800      -2.35128400       0.10371188       0.82803345      -2.70232094
Fe       4.59755000       7.72233000       6.72559000       2.86127800       5.76095300       2.11819400       3.20592631       5.86138367       2.19245106
Fe       6.69102000       2.72189000       3.39445000       0.82746800       0.11261800      -1.32677500       0.65034243       0.08235831      -1.37758468
Fe       7.82489000       2.79083000       5.52653000       0.57260400      -7.67863200      -2.50501700       0.55046712      -7.49651934      -2.28847059
Fe       7.54254000       1.43077000       8.06710000       0.33636900      -1.31354300       0.06591500       0.68573589      -0.90337741       0.29242049
Fe       6.83339000       5.01847000       0.43089000       4.01851000      -1.75305200       1.07569000       4.09589729      -1.41693399       1.16859247
Fe       7.80095000       6.57346000       4.77816000       4.73736500       1.98019500       6.49954800       4.79962884       1.91074692       6.58709661
Fe       8.33789000       5.95118000       7.24348000       2.01691100      -0.30640800      -0.91254000       2.40395467      -0.31153409      -0.93781635
Fe       7.34696000       7.25711000       1.28757000       7.90645500      -4.42309700       1.23948600       7.78277812      -4.51600837       1.19904286
Fe       7.43242000       8.44439000       3.63072000      -1.39910700       0.40142200      -0.15691100      -1.32278805       0.48116029      -0.09282525
B        1.97996000       5.43579000       5.32338000      -0.33243100       1.61500000       5.95131600      -0.81930099       1.43716227       6.08306379
B        0.49461000       6.49135000       2.99766000      -0.31705400       0.59177900      -0.01053800      -0.44262580       0.49177895       0.13562755
B        3.37504000       7.40708000       5.38089000      -5.99801200       0.47595800      -0.02338300      -5.63635485       0.79661322       0.31820841
B        4.96515000       4.52318000       6.89092000       3.31349400      -3.18234200       1.78657900       3.18227173      -3.06643212       1.45805730
B        5.58896000       5.84005000       1.76460000       0.64861700       0.75442100       1.21706300       0.59352916       0.76853567       1.07744909
B        5.83801000       7.06270000       4.90751000       3.37632700      -0.49791000      -0.21154100       3.08886463      -0.08363236      -0.05348826
B        4.61582000       6.31906000       5.77296000      -1.03151500      -4.56273800      -3.32360500      -1.22140692      -5.01615115      -2.84820594
B        5.97309000       7.45393000       2.31973000      -2.96928400       1.09257400       2.97626800      -2.97603361       0.89734623       3.23748663
B        4.33874000       7.29192000       4.22868000       1.12064900       0.81723600       0.43610100       0.56034405       0.90330917      -0.63585472
B        7.72559000       4.19378000       4.57689000      -0.45124300       3.98855700      -2.90870800      -0.62543139       4.06378993      -2.93680534
Si       2.36775000       1.39684000       1.89633000       1.21065900       0.18949800       0.44841900       1.17608017      -0.19512981       0.39611242
Si       2.71399000       1.54914000       5.95224000      -0.97150700       1.13117000       2.76442000      -0.72611420       0.89177325       2.52731281
Si       3.28955000       3.98982000       4.60004000       0.74842900      -0.88155400       4.79535100       1.00084507      -1.07042829       4.03441902
Si       2.89881000       5.25907000       1.19827000      -0.23285300      -0.18968200       0.16399200      -0.54110794      -0.26471483       0.12599371
Si       3.70049000       7.63232000       0.08133000      -4.14839400      -0.17279700       2.68798100      -4.40048150       0.03162142       2.78363142
Si       6.67656000       0.73535000       1.44116000      -3.60544400       3.39071100       0.89862900      -3.80904136       3.34182055       1.09804989
Si       7.67019000       0.53497000       5.89855000      -0.08039200      -1.77360700       0.76356800      -0.22447248      -1.49007895       0.59491943
Si       8.29725000       2.99648000       0.96254000      -1.13453400      -3.27728700       0.33879000      -1.39451014      -3.46815967       0.40860992
Si       7.40923000       4.02958000       6.96965000      -1.81600400       0.96913600       4.48163600      -1.54074550       0.49940566       4.80345891
Si       7.01249000       5.74161000       3.32202000      -3.98624800      -2.98766700      -5.79576500      -4.22386566      -2.82078501      -5.91264049
54
Lattice="8.579999685 0.0 0.0 0.0 8.579999685 0.0 0.0 0.0 8.5799996" Properties=species:S:1:pos:R:3:REF_forces:R:3:MACE_forces:R:3 config_type=random2 REF_energy=-358.18453515 MACE_energy=-358.1407777239363 pbc="T T T"
Fe       0.67784000       1.42600000       4.73270000       0.73286300      -0.83759600      -0.86363300       0.77740711      -0.43243206      -1.07808535
Fe       1.80600000       0.78628000       7.98152000      -0.21501700       4.54628000       1.47421800      -0.03062577       4.53022503       1.49172638
Fe       1.72820000       3.31227000       3.62866000       1.47689300      -1.16474500       0.84209400       1.77623022      -1.33922783       0.91103724
Fe       1.26949000       3.60873000       6.28045000      -2.30845800       2.47241900      -0.02322800      -2.58759423       2.52056966       0.36426599
Fe       0.99472000       5.31230000       0.60430000      -2.51259200      -1.02653900      -1.17393400      -2.32711571      -0.91612361      -1.36142763
Fe       0.20061000       4.55674000       2.88710000      -1.84897700      -0.58032100      -0.41954500      -1.66591203      -0.79821107      -0.43794788
Fe       0.17403000       7.49971000       0.22557000      -1.18320700      -1.63527800      -1.18960000      -1.22962710      -1.67119669      -1.01324872
Fe       2.11762000       7.20795000       1.12963000      -8.60668700      -2.28539000       6.55154800      -8.59127843      -2.39824476       6.70273939
Fe       1.53173000       7.83266000       3.80603000      -1.65905400      -0.11404600      -0.89610500      -1.34173884      -0.02374777      -0.87538002
Fe       1.74486000       7.54079000       7.38183000      -0.77016800      -2.84296400      -4.33487700      -0.27275469      -2.92575420      -4.44619551
Fe       3.56186000       0.47927000       3.91303000      -0.80393000       0.09573100       0.48864500      -0.58510431       0.39988857       0.72597922
Fe       2.69544000       3.32913000       8.35331000      -0.91529500      -1.37466700      -1.27096300      -1.07617392      -1.05400585      -1.50849564
Fe       2.50726000       5.55253000       3.00891000      -3.70845900       1.84549900       7.06229400      -3.53383921       1.62723257       7.12365852
Fe       2.66303000       5.37632000       6.86323000       1.34009500       0.58131700      -1.07274400       1.01832450       0.49889687      -0.88452718
Fe       3.68938000       7.29321000       2.47293000       0.29505500       3.79600900       1.74225700       0.29426093       3.82169292       2.03655092
Fe       5.40299000       0.02262000       0.28245000       1.09754400       1.37381700      -0.56286500       0.99829534       1.27283648      -0.83490542
Fe       4.76280000       2.19193000       4.29489000       2.19427600      -1.08862000       1.63743200       2.04565198      -1.13962345       1.19266429
Fe       5.87698000       1.49013000       6.50500000      -2.18598600       1.19192000       1.46600100      -2.24295076       1.19707585       1.39233712
Fe       4.48055000       3.07540000       2.45780000      -2.84622400       3.45030800      -0.21057900      -2.63049572       3.25268902      -0.27186308
Fe       4.83688000       2.94002000       8.43684000       0.49024200       0.44080300      -1.29325900       0.46895841       0.51948687      -1.14398770
Fe       4.30622000       5.52054000       0.10302000       2.65356400      -0.61538500      -1.14058600       2.35546542      -0.66894931      -1.49864887
Fe       4.85577000       5.68427000       3.22538000     -13.58892600      -0.68123400       5.77741200     -13.68696936      -1.25161819       5.02645821
Fe       5.84993000       6.63152000       7.18110000       2.03459500      -3.33577600       1.78593900       1.91160817      -3.39928982       1.37133865
Fe       4.72930000       7.89323000       6.40878000      -2.94043200       3.01534400      -1.87259700      -2.95214815       3.08492817      -1.58631079
Fe       8.57594000       0.14462000       1.86915000       1.84558700       1.97931100       0.93135500       1.46475634       1.94600076       0.86557717
Fe       7.40625000       0.48915000       3.55738000      -1.33936600      -1.43260200       0.55771200      -1.22347984      -1.21893177       0.63854733
Fe       7.75862000       0.67902000       8.04704000      -0.77003900       0.72030400      -0.65512800      -0.68633139       0.56612334      -0.60530971
Fe       7.46465000       2.57205000       3.33742000      -0.45460800       2.06343200      -2.84623400      -0.49828780       1.75812985      -2.23416522
Fe       7.51645000       2.84284000       5.46098000       2.51807600      -2.81291200       2.63874200       2.21893925      -2.57607567       2.10529398
Fe       7.11718000       5.17386000       0.62422000       0.27145600      -0.82583000       2.77819000      -0.12358588      -0.74903516       2.99038082
Fe       6.51145000       4.47616000       5.19496000      -3.21759500       3.62253300      -0.00675500      -3.29301323       3.18247201       0.07045650
Fe       6.97347000       7.04758000       1.38649000       0.48266800       2.22145100      -0.50307700       0.45706780       2.53735541      -0.68840197
Fe       8.10334000       7.04288000       4.95886000      -1.48616400      -0.51613500      -4.54135800      -1.56342358      -0.85643167      -4.54503046
Fe       8.05258000       6.29152000       6.99912000      -5.65637200      -2.13614500       5.60244700      -5.82777154      -2.35154500       5.76672870
B        0.04547000       6.36131000       2.63966000       0.55615900       2.89343100      -0.65487300       0.58382314       3.03115402      -0.81101441
B        0.78760000       6.41749000       6.11718000       8.96866000      -1.86484800      -4.88573100       8.88872736      -1.43703555      -5.16905468
B        3.88199000       6.18665000       5.24393000       2.40535200      -4.52291800       1.86480100       2.50731310      -4.00109325       2.09231499
B        2.47083000       6.65446000       5.06009000      -4.16668300       1.63659100       0.72991100      -4.61086846       1.17497444       0.96490357
B        5.17040000       4.43420000       7.03607000      -0.49407400       0.60408200      -0.07071100      -0.28243492       0.70221954      -0.06903397
B        4.98477000       7.02089000       1.26112000       2.69184300      -1.01715200      -0.23867300       2.91830062      -1.15862969      -0.01851019
B        6.14089000       6.45683000       4.80405000      -1.30138100       0.95082900       0.28639900      -1.15957153       0.94670669       0.31962635
B        6.13162000       8.43071000       2.35098000      -2.35722900       0.80301000      -1.64851700      -2.42927627       0.76523266      -1.23862770
B        4.56795000       7.37597000       4.51000000       1.08899100       1.91413600      -2.46424300       1.49655271       1.63039554      -2.09439846
B        8.43856000       4.83510000       4.92882000       1.36608400      -0.27092900       0.38228600       1.05277075      -0.07202858       0.62709296
Si       2.33663000       0.88304000       1.86191000       0.20378000       0.67375300       0.48954000      -0.14971931       0.26952507       0.36716328
Si       2.47060000       2.01787000       5.82671000       3.44729400      -2.77017900       0.28477400       3.40680397      -2.57898733       0.07383719
Si       3.99754000       3.90209000       5.28043000      -0.52173300       2.24871100       0.56615500      -0.67837775       2.36571710       0.66166366
Si       2.88628000       4.75003000       1.35877000       1.35107300      -4.46219800      -1.82910400       1.40731182      -4.05446117      -1.71331023
Si       3.44659000       7.61488000       0.02362000       9.22872600       3.26579400      -6.84666600       8.87212555       3.14126201      -7.14287393
Si       5.84087000       1.88518000       1.47006000       1.98939500      -2.63771400       1.14825400       2.18146723      -2.39196910       1.22964433
Si       7.50409000       0.39762000       5.72805000       0.28887500      -1.01436500       1.80494100       0.38705273      -0.70171995       1.78022551
Si       7.89236000       2.62826000       0.60996000       1.84518100       0.08413200       2.31178300       1.98118286       0.21686657       2.18413683
Si       7.19466000       4.02992000       7.62402000      -0.41245200      -1.87945400      -6.47557700      -0.16383793      -1.70786014      -6.72809474
Si       6.49362000       5.60380000       2.83650000      15.40678400      -2.74500600      -1.21396800      15.97391034      -3.08542839      -1.07749969
54
Lattice="8.579999685 0.0 0.0 0.0 8.579999685 0.0 0.0 0.0 8.5799996" Properties=species:S:1:pos:R:3:REF_forces:R:3:MACE_forces:R:3 config_type=random2 REF_energy=-360.24557691 MACE_energy=-358.95424813823826 pbc="T T T"
Fe       0.15602000       0.52795000       0.11788000       1.50118900       2.12647900      -0.69082500       1.54220701       1.91119375      -1.06795518
Fe       1.70518000       0.91529000       6.12502000      -0.09988400      -0.42418000       1.68375300      -0.14251841      -0.45451592       1.78072899
Fe       1.54966000       2.36852000       1.06669000      -5.85953100      -4.36721300       0.56745300      -7.00435592      -5.06887597       0.46216210
Fe       1.02665000       1.75632000       4.18103000      -1.38605400      -0.36095700      -0.43690800      -1.68123925       0.23816285      -0.10770219
Fe       1.06359000       3.94918000       2.34805000       0.69749000      -0.85774700       5.96520700       0.64220774      -0.06720232       6.82935030
Fe       1.28487000       3.20120000       7.58043000       3.39307500      -0.26984800       2.42083000       3.28139400      -0.57970945       1.21151291
Fe       1.14161000       6.71049000       0.83829000      -0.40864800      -2.86541500      -0.56258600      -0.44580349      -2.48320941      -0.63618891
Fe       0.40301000       6.75556000       3.85346000      -3.54681400      -2.71605200       0.53524600      -3.56452648      -2.42132273       0.56429665
Fe       2.42406000       1.07205000       2.77097000       0.17396900      -0.59415600       0.13555400       0.43514226      -0.44654808       0.01998578
Fe       3.41034000       2.05710000       0.70145000       6.42881300      -5.02873900      -4.48941300       7.21578442      -5.23910958      -4.27424933
Fe       2.29718000       4.17321000       0.18921000       8.27262100       4.83321100       0.27939000       8.37666090       4.85787075      -0.14120254
Fe       3.97525000       3.01933000       3.45467000      -3.56965100      -1.67327500       4.17175000      -3.58074603      -1.48089596       4.28925243
Fe       2.31555000       3.12797000       5.45181000      -0.56424300       1.47291700      -0.72207500      -0.50759646       1.44260464      -0.86427299
Fe       4.14051000       4.67154000       7.32496000      -1.85033600      -2.49705600      -3.03953400      -1.52388874      -1.97360005      -3.13780329
Fe       3.30273000       6.05901000       1.51938000       1.42520300      -0.93348100       5.20094300       1.20957923      -1.00264917       5.29477167
Fe       2.31083000       5.81669000       6.24071000      -1.65695700      -1.97484000      -1.83228700      -1.89204318      -2.10110954      -1.95268667
Fe       4.23546000       8.36043000       1.12111000      -3.48153700      -2.75255200      -1.29453300      -3.52785440      -2.77305785      -1.31792280
Fe       3.23987000       7.53891000       5.51734000      -0.21665400       2.51274300      -1.38503500      -0.10946011       1.98057047      -1.07801898
Fe       5.12946000       0.94550000       4.94399000      -0.11299800       0.77990500       2.32699000       0.14823688       0.80304171       2.05496792
Fe       5.13589000       1.13489000       7.61232000      -2.35192000      -2.47185700      -1.54459000      -1.98578826      -2.40890407      -1.31842720
Fe       5.77866000       4.23588000       4.79030000      -1.29299100      -0.33304200      -0.54889500      -1.41246272      -0.51892676      -0.62562790
Fe       5.21312000       5.43128000       0.36944000       0.48480600      -1.77457800       2.45456000       0.22361709      -1.76939827       2.36712281
Fe       6.29545000       5.29844000       6.90813000       0.27479600       0.56550300      -0.15217800      -0.13202368       1.31261200       0.32530729
Fe       6.35692000       7.06671000       0.82505000      -3.36239600      -4.01210700       4.38604600      -3.50596057      -4.05018821       4.51668815
Fe       5.03038000       6.83997000       3.89378000      -5.77025900      -0.16605500       1.32235200      -5.55278646       0.29204252       0.99355557
Fe       4.78652000       7.09563000       7.12705000       1.46620700       1.40382700      -0.48359700       1.55080367       1.16421099      -0.41382948
Fe       6.27758000       8.37043000       3.24816000       2.63331000      -0.39926000      -1.09188300       2.43742278      -0.63723345      -1.30941260
Fe       6.66778000       2.25230000       0.37441000       0.46215200       5.56438900      -2.13561400       0.55732928       5.24516402      -1.77763318
Fe       7.36634000       1.80676000       3.25099000      -1.00720600       0.66121700       0.12043400      -0.86404862       0.32071678       0.13101077
Fe       7.20940000       4.10018000       1.95385000       2.57566800      -1.48999600      -0.86593000       2.36604247      -1.94124096      -0.69793883
Fe       7.94471000       3.72778000       4.77598000       1.55881000      -0.58188700      -6.79754900       1.62202834      -0.59101339      -6.42374925
Fe       6.75768000       6.07296000       3.66358000       3.93722500      -2.42586800      -1.10133600       3.98758245      -2.48901435      -1.00131810
Fe       8.21458000       8.08402000       1.87626000      -0.44151800      -0.26603100       3.30322800      -0.75908113      -0.17941291       3.40824055
Fe       7.36868000       8.08437000       5.29726000       0.43877100       0.17228300       0.46133200       0.62487105       0.10280683       0.63759676
B        0.46931000       2.86958000       6.22296000      -3.80288900      -1.09387000      -7.26709800      -2.90154546      -1.02985137      -6.70706985
B        0.79690000       4.64043000       0.78277000      -5.70109500       2.77781200      -1.37694100      -5.40623241       3.09003206      -1.41089793
B        0.73908000       6.06271000       7.33363000       1.54267100       0.77045400       1.64299100       0.98970226       0.63567330       1.56780637
B        1.70695000       8.30838000       1.61351000       0.69871300       2.04304800      -1.19793700       0.66767927       1.79502665      -1.06789012
B        1.06367000       7.86886000       5.17764000       0.71186900       0.56033400       0.46457700       0.34839759       0.66957091       0.52090868
B        3.05807000       3.31560000       1.75331000       0.60245100       5.37233400       4.97576700       0.73623325       5.36363163       5.11131528
B        4.11376000       3.15831000       5.72174000       0.08260300      -0.21738500      -1.78505000       0.40680398      -0.02519168      -1.60357974
B        8.14039000       2.18508000       1.52896000       1.19434400      -0.12824400       0.69320900       1.20027856      -0.12446419       0.72953318
B        8.39030000       2.05308000       7.53614000      -1.77848500      -1.83154800       0.20619400      -1.58717086      -1.95386382       0.51040711
B        8.30153000       5.45928000       1.83309000       1.20856300       4.13672900       0.40624600       1.64424323       4.71838754       0.51225409
Si       3.00019000       6.35380000       8.16132000      -1.19834300       2.89758700      -2.26894600      -1.29573807       2.78849106      -1.71813016
Si       2.24659000       7.26192000       3.26474000       4.14484200       1.08172900      -0.14133900       4.21196782       0.78800835      -0.28008223
Si       6.17884000       0.45233000       0.83743000       1.44634700      -0.49623800       2.03270200       1.66040883      -0.16838607       1.85719917
Si       4.64336000       1.00099000       2.78500000      -0.82361900       2.27383700       0.17243100      -0.71917829       2.15760779       0.20148391
Si       5.30071000       3.73874000       2.23321000      -1.13801900       1.40766600      -1.97244000      -1.43023299       1.23465410      -2.31864231
Si       5.60784000       3.05108000       6.86204000       1.78633600       1.16462800       1.21292600       1.79372320       0.75101032       0.96335393
Si       7.37786000       2.01899000       5.63982000      -1.85188300      -4.99033500       0.63073900      -2.43666796      -5.32558186       0.10538943
Si       7.84836000       3.98525000       7.99758000      -1.73886300       0.76335000       2.02910200      -1.57856868       1.35271826       1.35169315
Si       8.18070000       5.21779000       5.96080000       2.99103300       5.24835700       0.50260400       2.64930377       5.01940179       0.27039392
Si       7.85457000       7.16215000       8.23590000       2.87892000      -0.59652700      -5.12003700       3.01786733      -0.73073370      -5.33605710
54
Lattice="8.579999685 0.0 0.0 0.0 8.579999685 0.0 0.0 0.0 8.5799996" Properties=species:S:1:pos:R:3:REF_forces:R:3:MACE_forces:R:3 config_type=random2 REF_energy=-365.22575864 MACE_energy=-365.0518829254878 pbc="T T T"
Fe       0.20349000       0.43692000       2.30233000      -1.19759000      -0.05132300      -0.31775900      -1.29138212      -0.14528628      -0.37207756
Fe       0.51917000       1.17401000       4.74302000       2.78563200      -1.27976500      -1.64547000       2.53399650      -1.35926644      -1.59595220
Fe       1.38751000       3.23006000       6.69712000      -2.06380500      -0.45204200      -2.64816400      -1.32019978      -0.21559313      -2.51263956
Fe       1.21974000       4.87952000       0.40100000      -2.47724400       1.11533000      -0.99296900      -2.39586980       1.06895026      -0.49560664
Fe       1.97573000       5.54310000       2.88466000       6.09622800      -0.22804000       0.22274800       6.47716098      -0.11426673       0.26593324
Fe       0.24724000       4.67275000       3.31002000       1.25657100      -3.26273900       0.49527800       1.87986843      -4.07988576       0.61835343
Fe       2.05879000       7.00765000       1.04459000      -2.72119300      -0.03775000      -3.04789100      -2.71905477      -0.40385237      -3.10604010
Fe       1.63798000       7.40648000       3.82765000       2.29920100       2.88972100       2.98139100       2.03689634       2.89879770       2.65616963
Fe       1.09226000       7.58547000       7.07334000       0.04029200       2.73525000       0.31147100       0.02884272       2.43315988       0.17317637
Fe       3.60090000       0.57134000       3.89250000       0.69494200       2.40229900      -4.05887500       0.53155520       2.96701387      -3.92255118
Fe       2.65991000       1.09437000       7.86419000      -1.14458000      -0.85522600       2.26630900      -1.08883475      -0.96087226       2.07644595
Fe       2.24446000       3.37294000       4.01156000       1.54847400      -3.07575300       1.59871500       1.37999940      -3.02136134       1.78591182
Fe       2.60814000       3.36778000       8.29224000       2.86850300      -0.48023700       1.04871300       2.79464920      -0.61710146       0.13387751
Fe       3.82657000       5.53146000       0.39663000      -0.49871600      -1.08215200       0.37044000      -1.03888803      -0.80965050       0.51208023
Fe       2.40237000       5.93309000       6.71186000       1.66007800      -1.91531100      -0.54914500       1.62167919      -1.80151395      -0.30019967
Fe       3.83124000       7.22984000       2.26002000       1.16293400      -0.34641600       3.49778100       1.25933328      -0.83460837       3.33667733
Fe       3.99920000       8.45773000       5.51692000       1.28512400      -7.68078000       2.95796600       1.87028902      -7.44714801       3.58707627
Fe       5.22444000       0.95706000       0.14198000      -0.41599900      -1.79364900       3.26990900      -0.38428819      -1.49934691       3.27555073
Fe       5.45558000       1.13972000       6.57432000       2.20837100       0.47887400      -0.56599300       2.34986357       0.23631695      -0.82666947
Fe       5.26466000       2.27135000       4.41008000      -0.17510500       1.86037900      -0.00881300      -0.65392522       1.81936578      -0.10129511
Fe       4.35232000       3.74890000       2.00519000       5.41658000      -2.25214300      -0.60695800       5.50126378      -2.68841560      -0.82933791
Fe       4.94500000       3.07245000       8.16952000       0.69532600       1.35147200      -0.28201500       0.54324686       1.32357141      -0.47014548
Fe       4.72549000       5.27621000       3.27777000       2.48098000       1.19615400       0.41763500       2.69993020       1.77986412       0.37480346
Fe       5.66786000       6.71115000       7.78034000       3.01066600       0.48468200      -0.64974500       2.97138914       0.33513058      -0.27261930