54
Lattice="8.579999685 0.0 0.0 0.0 8.579999685 0.0 0.0 0.0 8.5799996" Properties=species:S:1:pos:R:3:REF_forces:R:3:MACE_forces:R:3 config_type=random2 REF_energy=-363.25552073 MACE_energy=-358.4437136631492 pbc="T T T"
Fe       0.14554000       0.51178000       1.72883000       1.59155600       1.69646400       0.64593400       1.62205908       1.61192469       0.43259024
Fe       0.72405000       1.36449000       4.41023000      -1.29379600       2.22691100       1.75321500      -1.58532764       2.23509236       2.14260319
Fe       1.28013000       1.28154000       8.53445000       0.26225800      -1.72780100      -2.25359700       0.85246853      -1.07139218      -1.93303266
Fe       1.78304000       2.91528000       3.50993000      -2.09245800       1.32746400      -0.69437800      -1.89780268       1.03236357      -0.83035128
Fe       0.75698000       4.21862000       5.92458000       2.67674200       0.07621400       0.69283600       2.60636350       0.06790799       0.50639208
Fe       0.63053000       4.76090000       0.44438000       2.96454100       3.11113800      -1.75676200       2.82457424       2.67102976      -1.88080599
Fe       0.02633000       4.52370000       2.53911000       1.51365300       0.35504600       1.69572400       1.12654837       0.08464813       2.25011153
Fe       1.82831000       7.54412000       1.78795000       0.87467800      -2.32144700      -3.97784800       1.02877900      -2.30224232      -3.75118429
Fe       1.35484000       8.36643000       3.60252000      -0.64195500      -5.00077700       1.37065900      -0.57558746      -4.66210755       1.03340017
Fe       0.00278000       7.66371000       8.06149000       0.84677900       3.28625900       0.13433000       0.98160505       3.62312405       0.09045967
Fe       3.20977000       0.65911000       4.08840000       1.20299600       0.08567500       0.16844000       1.67676691       0.32376278       0.37402685
Fe       3.81428000       3.40248000       2.69765000       1.92092000      -1.15662700      -3.56356700       1.66422025      -0.96137125      -3.28241919
Fe       2.27468000       3.19194000       8.08871000       0.59526400       1.04068000       0.20830700       0.67876585       0.76442834      -0.03387143
Fe       2.36527000       5.68967000       3.77721000      -1.32118300       3.62799500      -7.73735100      -0.88081696       3.43597851      -7.58508995
Fe       3.31539000       4.98429000       6.86176000      -4.76733700       1.31799100      -0.15025300      -4.79116401       1.43190823      -0.31365103
Fe       4.14047000       8.03537000       2.57836000      -0.12326500       0.71998900      -4.54677200      -0.35588970       0.22372291      -4.29652194
Fe       2.33721000       7.37963000       6.97430000      -3.25408300      -0.42617300       0.11952900      -2.90293391      -0.10806754      -0.03255767
Fe       5.49649000       2.81617000       0.00560000      -0.38440000       1.06482400       2.77431200      -0.72843592       0.89840467       2.92480619
Fe       4.90462000       2.19117000       4.68344000      -0.30939700      -0.22068900       0.15476200      -0.38864510      -0.31305944       0.15140542
Fe       6.05887000       2.28929000       6.72430000      -2.40764300      -1.20527600      -2.21344100      -2.44842914      -1.27663553      -2.65379118
Fe       4.96066000       5.38738000       0.05685000      -5.52595300       0.24353800      -1.43029300      -5.66769101       0.37462663      -1.06831684
Fe       4.63277000       5.58711000       3.43909000       0.15670200       0.36247400      -2.39573300       0.64577127       0.54738969      -1.85025926
Fe       5.47216000       4.57113000       5.11890000       2.10490400      -2.93581200      -1.75472200       2.19548526      -2.49772123      -1.90024407
Fe       6.30403000       5.90903000       6.68980000       0.34040700       3.61786100       1.57378600      -0.26122511       3.73702695       0.69550215
Fe       5.70388000       7.66893000       0.29664000      -0.15104200       0.56316800      -2.35128400      -0.05432927       0.74111574      -2.65904789
Fe       4.59755000       7.72233000       6.72559000       2.86127800       5.76095300       2.11819400       3.00595365       5.42960046       1.84196802
Fe       6.69102000       2.72189000       3.39445000       0.82746800       0.11261800      -1.32677500       0.67039348       0.03390339      -1.35307078
Fe       7.82489000       2.79083000       5.52653000       0.57260400      -7.67863200      -2.50501700       0.44894347      -7.44871954      -2.27162267
Fe       7.54254000       1.43077000       8.06710000       0.33636900      -1.31354300       0.06591500       0.62113630      -1.08002499       0.28795763
Fe       6.83339000       5.01847000       0.43089000       4.01851000      -1.75305200       1.07569000       4.15235751      -1.41961324       1.31299274
Fe       7.80095000       6.57346000       4.77816000       4.73736500       1.98019500       6.49954800       4.63932036       1.94539343       6.50634244
Fe       8.33789000       5.95118000       7.24348000       2.01691100      -0.30640800      -0.91254000       2.27587749      -0.42282192      -1.09698638
Fe       7.34696000       7.25711000       1.28757000       7.90645500      -4.42309700       1.23948600       7.59274887      -4.63612658       1.41581021
Fe       7.43242000       8.44439000       3.63072000      -1.39910700       0.40142200      -0.15691100      -1.37393817       0.49815456      -0.08851130
B        1.97996000       5.43579000       5.32338000      -0.33243100       1.61500000       5.95131600      -0.64476672       1.34736096       5.92155870
B        0.49461000       6.49135000       2.99766000      -0.31705400       0.59177900      -0.01053800      -0.30426601       0.46195093       0.16725508
B        3.37504000       7.40708000       5.38089000      -5.99801200       0.47595800      -0.02338300      -5.70695368       0.96739210       0.53874243
B        4.96515000       4.52318000       6.89092000       3.31349400      -3.18234200       1.78657900       3.10799169      -3.05906409       1.35621211
B        5.58896000       5.84005000       1.76460000       0.64861700       0.75442100       1.21706300       0.64466262       0.73281641       0.89921374
B        5.83801000       7.06270000       4.90751000       3.37632700      -0.49791000      -0.21154100       3.18106916      -0.40501609       0.12356359
B        4.61582000       6.31906000       5.77296000      -1.03151500      -4.56273800      -3.32360500      -1.00375697      -4.89455366      -2.74874965
B        5.97309000       7.45393000       2.31973000      -2.96928400       1.09257400       2.97626800      -2.95102074       0.90510368       3.26777958
B        4.33874000       7.29192000       4.22868000       1.12064900       0.81723600       0.43610100       0.83072656       0.77496695      -0.57391300
B        7.72559000       4.19378000       4.57689000      -0.45124300       3.98855700      -2.90870800      -0.41904245       3.86846201      -2.80767542
Si       2.36775000       1.39684000       1.89633000       1.21065900       0.18949800       0.44841900       1.24116730      -0.01087303       0.43298845
Si       2.71399000       1.54914000       5.95224000      -0.97150700       1.13117000       2.76442000      -0.80916790       0.78549918       2.51188996
Si       3.28955000       3.98982000       4.60004000       0.74842900      -0.88155400       4.79535100       1.01230473      -0.94343453       4.35972231
Si       2.89881000       5.25907000       1.19827000      -0.23285300      -0.18968200       0.16399200      -0.28920878      -0.35988585       0.20627497
Si       3.70049000       7.63232000       0.08133000      -4.14839400      -0.17279700       2.68798100      -4.21148606       0.03264116       2.60393340
Si       6.67656000       0.73535000       1.44116000      -3.60544400       3.39071100       0.89862900      -3.59156931       3.45736490       1.07595420
Si       7.67019000       0.53497000       5.89855000      -0.08039200      -1.77360700       0.76356800      -0.32114225      -1.65880630       0.53750142
Si       8.29725000       2.99648000       0.96254000      -1.13453400      -3.27728700       0.33879000      -1.40601493      -3.19250892       0.37475262
Si       7.40923000       4.02958000       6.96965000      -1.81600400       0.96913600       4.48163600      -1.48509700       0.51459619       4.47395520
Si       7.01249000       5.74161000       3.32202000      -3.98624800      -2.98766700      -5.79576500      -4.27235161      -2.83561553      -5.80599241
54
Lattice="8.579999685 0.0 0.0 0.0 8.579999685 0.0 0.0 0.0 8.5799996" Properties=species:S:1:pos:R:3:REF_forces:R:3:MACE_forces:R:3 config_type=random2 REF_energy=-358.18453515 MACE_energy=-353.35030479191084 pbc="T T T"
Fe       0.67784000       1.42600000       4.73270000       0.73286300      -0.83759600      -0.86363300       0.77565494      -0.47887314      -1.10302279
Fe       1.80600000       0.78628000       7.98152000      -0.21501700       4.54628000       1.47421800      -0.26827817       4.56609989       1.41938479
Fe       1.72820000       3.31227000       3.62866000       1.47689300      -1.16474500       0.84209400       1.80980886      -1.41195475       0.84642918
Fe       1.26949000       3.60873000       6.28045000      -2.30845800       2.47241900      -0.02322800      -2.69678557       2.63558838       0.30613100
Fe       0.99472000       5.31230000       0.60430000      -2.51259200      -1.02653900      -1.17393400      -2.46839011      -1.11314094      -1.42621333
Fe       0.20061000       4.55674000       2.88710000      -1.84897700      -0.58032100      -0.41954500      -1.80090245      -0.63316713      -0.42216707
Fe       0.17403000       7.49971000       0.22557000      -1.18320700      -1.63527800      -1.18960000      -1.27252467      -1.70008938      -1.04215779
Fe       2.11762000       7.20795000       1.12963000      -8.60668700      -2.28539000       6.55154800      -8.57398863      -2.42192319       6.84438961
Fe       1.53173000       7.83266000       3.80603000      -1.65905400      -0.11404600      -0.89610500      -1.50575686      -0.01373069      -0.83662862
Fe       1.74486000       7.54079000       7.38183000      -0.77016800      -2.84296400      -4.33487700      -0.44785247      -2.91551316      -4.60478065
Fe       3.56186000       0.47927000       3.91303000      -0.80393000       0.09573100       0.48864500      -0.67940327       0.52141324       0.88089713
Fe       2.69544000       3.32913000       8.35331000      -0.91529500      -1.37466700      -1.27096300      -0.96059823      -1.14916615      -1.50625330
Fe       2.50726000       5.55253000       3.00891000      -3.70845900       1.84549900       7.06229400      -3.58641546       1.61178812       7.04153043
Fe       2.66303000       5.37632000       6.86323000       1.34009500       0.58131700      -1.07274400       1.07747926       0.48772771      -0.78909220
Fe       3.68938000       7.29321000       2.47293000       0.29505500       3.79600900       1.74225700       0.34971712       3.73202477       1.69462577
Fe       5.40299000       0.02262000       0.28245000       1.09754400       1.37381700      -0.56286500       1.16001342       1.46350745      -0.80730167
Fe       4.76280000       2.19193000       4.29489000       2.19427600      -1.08862000       1.63743200       2.15370957      -0.99451764       1.17408071
Fe       5.87698000       1.49013000       6.50500000      -2.18598600       1.19192000       1.46600100      -2.22382026       1.37502627       1.47221727
Fe       4.48055000       3.07540000       2.45780000      -2.84622400       3.45030800      -0.21057900      -2.52208088       3.10118760      -0.12919323
Fe       4.83688000       2.94002000       8.43684000       0.49024200       0.44080300      -1.29325900       0.53118809       0.57687533      -1.25174423
Fe       4.30622000       5.52054000       0.10302000       2.65356400      -0.61538500      -1.14058600       2.45544931      -0.60636656      -1.33076875
Fe       4.85577000       5.68427000       3.22538000     -13.58892600      -0.68123400       5.77741200     -13.10930734      -1.19469550       5.16869653
Fe       5.84993000       6.63152000       7.18110000       2.03459500      -3.33577600       1.78593900       1.89221436      -3.36019956       1.47039742
Fe       4.72930000       7.89323000       6.40878000      -2.94043200       3.01534400      -1.87259700      -2.83050283       3.11936055      -1.70006462
Fe       8.57594000       0.14462000       1.86915000       1.84558700       1.97931100       0.93135500       1.51831040       1.96512070       0.81969101
Fe       7.40625000       0.48915000       3.55738000      -1.33936600      -1.43260200       0.55771200      -1.39213766      -1.36700240       0.47199440
Fe       7.75862000       0.67902000       8.04704000      -0.77003900       0.72030400      -0.65512800      -0.91924220       0.74504163      -0.61580180
Fe       7.46465000       2.57205000       3.33742000      -0.45460800       2.06343200      -2.84623400      -0.60587000       1.84650923      -2.28827414
Fe       7.51645000       2.84284000       5.46098000       2.51807600      -2.81291200       2.63874200       2.28782051      -2.69957021       2.23328641
Fe       7.11718000       5.17386000       0.62422000       0.27145600      -0.82583000       2.77819000       0.07860394      -0.93090650       2.74727413
Fe       6.51145000       4.47616000       5.19496000      -3.21759500       3.62253300      -0.00675500      -3.33193711       3.24809032       0.17153489
Fe       6.97347000       7.04758000       1.38649000       0.48266800       2.22145100      -0.50307700       0.45791763       2.79527297      -0.52396060
Fe       8.10334000       7.04288000       4.95886000      -1.48616400      -0.51613500      -4.54135800      -1.65400082      -0.77400087      -4.67923748
Fe       8.05258000       6.29152000       6.99912000      -5.65637200      -2.13614500       5.60244700      -5.78544322      -2.31705735       5.73272077
B        0.04547000       6.36131000       2.63966000       0.55615900       2.89343100      -0.65487300       0.53721848       2.94004354      -0.81685326
B        0.78760000       6.41749000       6.11718000       8.96866000      -1.86484800      -4.88573100       9.09475328      -1.42891836      -5.08647293
B        3.88199000       6.18665000       5.24393000       2.40535200      -4.52291800       1.86480100       2.64201880      -4.46967010       2.09029904
B        2.47083000       6.65446000       5.06009000      -4.16668300       1.63659100       0.72991100      -4.64288988       1.31369746       0.86842532
B        5.17040000       4.43420000       7.03607000      -0.49407400       0.60408200      -0.07071100      -0.37278423       0.67681826      -0.15859014
B        4.98477000       7.02089000       1.26112000       2.69184300      -1.01715200      -0.23867300       2.91623660      -1.27305155      -0.02783633
B        6.14089000       6.45683000       4.80405000      -1.30138100       0.95082900       0.28639900      -1.09408110       0.93859171       0.42158453
B        6.13162000       8.43071000       2.35098000      -2.35722900       0.80301000      -1.64851700      -2.24049893       0.83235448      -1.27149066
B        4.56795000       7.37597000       4.51000000       1.08899100       1.91413600      -2.46424300       1.42889897       1.74137380      -2.23623991
B        8.43856000       4.83510000       4.92882000       1.36608400      -0.27092900       0.38228600       1.13346079      -0.11091020       0.52631718
Si       2.33663000       0.88304000       1.86191000       0.20378000       0.67375300       0.48954000      -0.00747871       0.47547521       0.45311612
Si       2.47060000       2.01787000       5.82671000       3.44729400      -2.77017900       0.28477400       3.32630391      -2.79158930       0.13109100
Si       3.99754000       3.90209000       5.28043000      -0.52173300       2.24871100       0.56615500      -0.62777813       2.46615140       0.63919071
Si       2.88628000       4.75003000       1.35877000       1.35107300      -4.46219800      -1.82910400       1.43729618      -4.10404134      -1.72844949
Si       3.44659000       7.61488000       0.02362000       9.22872600       3.26579400      -6.84666600       9.01806043       3.20126991      -7.02145578
Si       5.84087000       1.88518000       1.47006000       1.98939500      -2.63771400       1.14825400       1.99256932      -2.56831446       1.39300472
Si       7.50409000       0.39762000       5.72805000       0.28887500      -1.01436500       1.80494100       0.39334328      -0.93132794       1.84074367
Si       7.89236000       2.62826000       0.60996000       1.84518100       0.08413200       2.31178300       2.02593786       0.27559655       2.14316730
Si       7.19466000       4.02992000       7.62402000      -0.41245200      -1.87945400      -6.47557700      -0.18956213      -1.77655339      -6.46695161
Si       6.49362000       5.60380000       2.83650000      15.40678400      -2.74500600      -1.21396800      15.31632597      -3.11575471      -1.13121866
54
Lattice="8.579999685 0.0 0.0 0.0 8.579999685 0.0 0.0 0.0 8.5799996" Properties=species:S:1:pos:R:3:REF_forces:R:3:MACE_forces:R:3 config_type=random2 REF_energy=-360.24557691 MACE_energy=-354.7972381684442 pbc="T T T"
Fe       0.15602000       0.52795000       0.11788000       1.50118900       2.12647900      -0.69082500       1.59520713       2.10197027      -0.98198767
Fe       1.70518000       0.91529000       6.12502000      -0.09988400      -0.42418000       1.68375300      -0.15235052      -0.41492270       1.56323333
Fe       1.54966000       2.36852000       1.06669000      -5.85953100      -4.36721300       0.56745300      -6.82649751      -4.87655982       0.44399931
Fe       1.02665000       1.75632000       4.18103000      -1.38605400      -0.36095700      -0.43690800      -1.53285448       0.17539763      -0.21244570
Fe       1.06359000       3.94918000       2.34805000       0.69749000      -0.85774700       5.96520700       0.59797105      -0.34706556       6.57254958
Fe       1.28487000       3.20120000       7.58043000       3.39307500      -0.26984800       2.42083000       3.32408894      -0.43116222       1.50515076
Fe       1.14161000       6.71049000       0.83829000      -0.40864800      -2.86541500      -0.56258600      -0.42872484      -2.55595210      -0.67418612
Fe       0.40301000       6.75556000       3.85346000      -3.54681400      -2.71605200       0.53524600      -3.48011867      -2.41773488       0.64602428
Fe       2.42406000       1.07205000       2.77097000       0.17396900      -0.59415600       0.13555400       0.35365523      -0.53067214       0.03323891
Fe       3.41034000       2.05710000       0.70145000       6.42881300      -5.02873900      -4.48941300       6.96927877      -5.12081936      -4.20630471
Fe       2.29718000       4.17321000       0.18921000       8.27262100       4.83321100       0.27939000       8.09917397       4.79846140      -0.13387305
Fe       3.97525000       3.01933000       3.45467000      -3.56965100      -1.67327500       4.17175000      -3.58939723      -1.49584923       4.13877973
Fe       2.31555000       3.12797000       5.45181000      -0.56424300       1.47291700      -0.72207500      -0.63566502       1.27346484      -0.87663269
Fe       4.14051000       4.67154000       7.32496000      -1.85033600      -2.49705600      -3.03953400      -1.60077303      -2.06779287      -3.17021011
Fe       3.30273000       6.05901000       1.51938000       1.42520300      -0.93348100       5.20094300       1.32707617      -1.06508940       5.39884295
Fe       2.31083000       5.81669000       6.24071000      -1.65695700      -1.97484000      -1.83228700      -1.98035939      -2.06044605      -1.91974496
Fe       4.23546000       8.36043000       1.12111000      -3.48153700      -2.75255200      -1.29453300      -3.35374651      -2.70832063      -1.27935187
Fe       3.23987000       7.53891000       5.51734000      -0.21665400       2.51274300      -1.38503500      -0.12600948       2.05828762      -0.99764569
Fe       5.12946000       0.94550000       4.94399000      -0.11299800       0.77990500       2.32699000       0.08270403       0.80742671       2.17876448
Fe       5.13589000       1.13489000       7.61232000      -2.35192000      -2.47185700      -1.54459000      -1.97164189      -2.37120759      -1.31599044
Fe       5.77866000       4.23588000       4.79030000      -1.29299100      -0.33304200      -0.54889500      -1.36415329      -0.54248825      -0.52939699
Fe       5.21312000       5.43128000       0.36944000       0.48480600      -1.77457800       2.45456000       0.25145947      -1.79949554       2.42341208
Fe       6.29545000       5.29844000       6.90813000       0.27479600       0.56550300      -0.15217800       0.18235114       1.18778697       0.30176738
Fe       6.35692000       7.06671000       0.82505000      -3.36239600      -4.01210700       4.38604600      -3.44009578      -4.14744560       4.46824631
Fe       5.03038000       6.83997000       3.89378000      -5.77025900      -0.16605500       1.32235200      -5.64356526       0.17068721       1.04523760
Fe       4.78652000       7.09563000       7.12705000       1.46620700       1.40382700      -0.48359700       1.67904186       1.43357677      -0.36495516
Fe       6.27758000       8.37043000       3.24816000       2.63331000      -0.39926000      -1.09188300       2.36954649      -0.53151930      -1.33876290
Fe       6.66778000       2.25230000       0.37441000       0.46215200       5.56438900      -2.13561400       0.73605448       5.54955937      -1.87186479
Fe       7.36634000       1.80676000       3.25099000      -1.00720600       0.66121700       0.12043400      -0.87960677       0.36678749      -0.09564281
Fe       7.20940000       4.10018000       1.95385000       2.57566800      -1.48999600      -0.86593000       2.25330728      -1.88311255      -0.60158468
Fe       7.94471000       3.72778000       4.77598000       1.55881000      -0.58188700      -6.79754900       1.73545983      -0.47873437      -6.42949990
Fe       6.75768000       6.07296000       3.66358000       3.93722500      -2.42586800      -1.10133600       3.99525624      -2.58791116      -1.11113712
Fe       8.21458000       8.08402000       1.87626000      -0.44151800      -0.26603100       3.30322800      -0.62040226      -0.23076186       3.59463719
Fe       7.36868000       8.08437000       5.29726000       0.43877100       0.17228300       0.46133200       0.56472492      -0.10811323       0.68924551
B        0.46931000       2.86958000       6.22296000      -3.80288900      -1.09387000      -7.26709800      -3.06179263      -1.03360818      -6.86512237
B        0.79690000       4.64043000       0.78277000      -5.70109500       2.77781200      -1.37694100      -5.28483254       2.86708478      -1.45364140
B        0.73908000       6.06271000       7.33363000       1.54267100       0.77045400       1.64299100       1.04287506       0.58791039       1.52138396
B        1.70695000       8.30838000       1.61351000       0.69871300       2.04304800      -1.19793700       0.67467989       1.83060480      -1.09286598
B        1.06367000       7.86886000       5.17764000       0.71186900       0.56033400       0.46457700       0.44433049       0.64552160       0.38952060
B        3.05807000       3.31560000       1.75331000       0.60245100       5.37233400       4.97576700       0.64123244       5.33820229       4.92915816
B        4.11376000       3.15831000       5.72174000       0.08260300      -0.21738500      -1.78505000       0.20691171       0.00224105      -1.69890736
B        8.14039000       2.18508000       1.52896000       1.19434400      -0.12824400       0.69320900       1.24580474      -0.04783064       0.69518998
B        8.39030000       2.05308000       7.53614000      -1.77848500      -1.83154800       0.20619400      -1.67451639      -1.84045387       0.50074837
B        8.30153000       5.45928000       1.83309000       1.20856300       4.13672900       0.40624600       1.63527255       4.47754878       0.42104690
Si       3.00019000       6.35380000       8.16132000      -1.19834300       2.89758700      -2.26894600      -1.44343546       2.80985292      -1.92917869
Si       2.24659000       7.26192000       3.26474000       4.14484200       1.08172900      -0.14133900       4.13782861       0.81924190      -0.19338767
Si       6.17884000       0.45233000       0.83743000       1.44634700      -0.49623800       2.03270200       1.40831782      -0.28818939       1.76560401
Si       4.64336000       1.00099000       2.78500000      -0.82361900       2.27383700       0.17243100      -0.72464609       2.18931886       0.28570852
Si       5.30071000       3.73874000       2.23321000      -1.13801900       1.40766600      -1.97244000      -1.25724401       1.21621583      -2.14797867
Si       5.60784000       3.05108000       6.86204000       1.78633600       1.16462800       1.21292600       1.70579216       0.78047478       1.24436555
Si       7.37786000       2.01899000       5.63982000      -1.85188300      -4.99033500       0.63073900      -2.15190514      -5.07648766       0.39782936
Si       7.84836000       3.98525000       7.99758000      -1.73886300       0.76335000       2.02910200      -1.72543210       1.18440508       1.42912053
Si       8.18070000       5.21779000       5.96080000       2.99103300       5.24835700       0.50260400       2.65598967       5.26409725       0.26477031
Si       7.85457000       7.16215000       8.23590000       2.87892000      -0.59652700      -5.12003700       3.03437416      -0.87638044      -5.35527613
54
Lattice="8.579999685 0.0 0.0 0.0 8.579999685 0.0 0.0 0.0 8.5799996" Properties=species:S:1:pos:R:3:REF_forces:R:3:MACE_forces:R:3 config_type=random2 REF_energy=-365.22575864 MACE_energy=-360.60978741481523 pbc="T T T"
Fe       0.20349000       0.43692000       2.30233000      -1.19759000      -0.05132300      -0.31775900      -1.28235166      -0.09687628      -0.33271478
Fe       0.51917000       1.17401000       4.74302000       2.78563200      -1.27976500      -1.64547000       2.83259081      -1.40407348      -1.78694608
Fe       1.38751000       3.23006000       6.69712000      -2.06380500      -0.45204200      -2.64816400      -1.60177076      -0.12098849      -2.74409888
Fe       1.21974000       4.87952000       0.40100000      -2.47724400       1.11533000      -0.99296900      -2.51878305       1.03660596      -0.45032054
Fe       1.97573000       5.54310000       2.88466000       6.09622800      -0.22804000       0.22274800       6.23414505      -0.08305517       0.16200564
Fe       0.24724000       4.67275000       3.31002000       1.25657100      -3.26273900       0.49527800       1.61345547      -3.87207820       0.51284260
Fe       2.05879000       7.00765000       1.04459000      -2.72119300      -0.03775000      -3.04789100      -2.77803570      -0.22148395      -3.23021581
Fe       1.63798000       7.40648000       3.82765000       2.29920100       2.88972100       2.98139100       2.09169224       2.74340912       2.60911684
Fe       1.09226000       7.58547000       7.07334000       0.04029200       2.73525000       0.31147100       0.08496275       2.48999918       0.24196947
Fe       3.60090000       0.57134000       3.89250000       0.69494200       2.40229900      -4.05887500       0.54277164       2.86100525      -4.05870683
Fe       2.65991000       1.09437000       7.86419000      -1.14458000      -0.85522600       2.26630900      -0.98111484      -1.00976855       2.14833443
Fe       2.24446000       3.37294000       4.01156000       1.54847400      -3.07575300       1.59871500       1.39753337      -3.02045515       1.82733019
Fe       2.60814000       3.36778000       8.29224000       2.86850300      -0.48023700       1.04871300       2.86433742      -0.62943357       0.37616301
Fe       3.82657000       5.53146000       0.39663000      -0.49871600      -1.08215200       0.37044000      -0.83255232      -1.04470871       0.47517038
Fe       2.40237000       5.93309000       6.71186000       1.66007800      -1.91531100      -0.54914500       1.57622197      -1.82203436      -0.11556416
Fe       3.83124000       7.22984000       2.26002000       1.16293400      -0.34641600       3.49778100       1.35701336      -0.56847900       3.47199498
Fe       3.99920000       8.45773000       5.51692000       1.28512400      -7.68078000       2.95796600       1.82062778      -7.42752610       3.54274307
Fe       5.22444000       0.95706000       0.14198000      -0.41599900      -1.79364900       3.26990900      -0.34710755      -1.49881676       3.29422494
Fe       5.45558000       1.13972000       6.57432000       2.20837100       0.47887400      -0.56599300       2.30620173       0.19921497      -0.76566077
Fe       5.26466000       2.27135000       4.41008000      -0.17510500       1.86037900      -0.00881300      -0.57055635       1.90230945      -0.10699916
Fe       4.35232000       3.74890000       2.00519000       5.41658000      -2.25214300      -0.60695800       5.45018963      -2.57334424      -0.84428269
Fe       4.94500000       3.07245000       8.16952000       0.69532600       1.35147200      -0.28201500       0.58408945       1.23862492      -0.36104901
Fe       4.72549000       5.27621000       3.27777000       2.48098000       1.19615400       0.41763500       2.61804173       1.76815314       0.30734237
Fe       5.66786000       6.71115000       7.78034000       3.01066600       0.48468200      -0.64974500       3.13916680       0.33851998      -0.19130244