54
Lattice="8.579999685 0.0 0.0 0.0 8.579999685 0.0 0.0 0.0 8.5799996" Properties=species:S:1:pos:R:3:REF_forces:R:3:MACE_forces:R:3 config_type=random2 REF_energy=-363.25552073 MACE_energy=-361.93926114716646 pbc="T T T"
Fe       0.14554000       0.51178000       1.72883000       1.59155600       1.69646400       0.64593400       1.63793275       1.64057811       0.48732467
Fe       0.72405000       1.36449000       4.41023000      -1.29379600       2.22691100       1.75321500      -1.68698653       2.15969134       2.20640248
Fe       1.28013000       1.28154000       8.53445000       0.26225800      -1.72780100      -2.25359700       0.76610524      -0.96142422      -1.83189233
Fe       1.78304000       2.91528000       3.50993000      -2.09245800       1.32746400      -0.69437800      -1.86522104       1.03085610      -0.82300586
Fe       0.75698000       4.21862000       5.92458000       2.67674200       0.07621400       0.69283600       2.61387824      -0.16296929       0.47638950
Fe       0.63053000       4.76090000       0.44438000       2.96454100       3.11113800      -1.75676200       2.65554950       2.55571633      -1.93929558
Fe       0.02633000       4.52370000       2.53911000       1.51365300       0.35504600       1.69572400       1.24136426       0.02444933       2.15268147
Fe       1.82831000       7.54412000       1.78795000       0.87467800      -2.32144700      -3.97784800       0.93089724      -2.33934835      -3.62161331
Fe       1.35484000       8.36643000       3.60252000      -0.64195500      -5.00077700       1.37065900      -0.59729568      -4.69982957       1.09816437
Fe       0.00278000       7.66371000       8.06149000       0.84677900       3.28625900       0.13433000       0.97966335       3.46688398       0.24655683
Fe       3.20977000       0.65911000       4.08840000       1.20299600       0.08567500       0.16844000       1.79405654       0.28270618       0.48176786
Fe       3.81428000       3.40248000       2.69765000       1.92092000      -1.15662700      -3.56356700       1.76807004      -0.99382730      -3.18940231
Fe       2.27468000       3.19194000       8.08871000       0.59526400       1.04068000       0.20830700       0.71091221       0.65856393      -0.02653869
Fe       2.36527000       5.68967000       3.77721000      -1.32118300       3.62799500      -7.73735100      -0.88469702       3.42950769      -7.53685600
Fe       3.31539000       4.98429000       6.86176000      -4.76733700       1.31799100      -0.15025300      -4.56600044       1.30531002      -0.38453324
Fe       4.14047000       8.03537000       2.57836000      -0.12326500       0.71998900      -4.54677200      -0.26725411       0.15621478      -4.08606431
Fe       2.33721000       7.37963000       6.97430000      -3.25408300      -0.42617300       0.11952900      -2.91099843      -0.23219605      -0.11527519
Fe       5.49649000       2.81617000       0.00560000      -0.38440000       1.06482400       2.77431200      -0.93558085       0.74161941       2.88815814
Fe       4.90462000       2.19117000       4.68344000      -0.30939700      -0.22068900       0.15476200      -0.42243726      -0.36537987       0.31207818
Fe       6.05887000       2.28929000       6.72430000      -2.40764300      -1.20527600      -2.21344100      -2.53902584      -1.22186182      -2.58644733
Fe       4.96066000       5.38738000       0.05685000      -5.52595300       0.24353800      -1.43029300      -5.43329851       0.32331100      -0.93885695
Fe       4.63277000       5.58711000       3.43909000       0.15670200       0.36247400      -2.39573300       0.57624867       0.66350369      -2.15973984
Fe       5.47216000       4.57113000       5.11890000       2.10490400      -2.93581200      -1.75472200       2.17311769      -2.66701847      -1.82857871
Fe       6.30403000       5.90903000       6.68980000       0.34040700       3.61786100       1.57378600      -0.13889995       3.36788698       0.81667640
Fe       5.70388000       7.66893000       0.29664000      -0.15104200       0.56316800      -2.35128400      -0.15066269       0.81902877      -2.61433538
Fe       4.59755000       7.72233000       6.72559000       2.86127800       5.76095300       2.11819400       3.09424246       5.73062506       1.89675174
Fe       6.69102000       2.72189000       3.39445000       0.82746800       0.11261800      -1.32677500       0.65877393       0.18908729      -1.30025434
Fe       7.82489000       2.79083000       5.52653000       0.57260400      -7.67863200      -2.50501700       0.44404618      -7.20286816      -2.08756652
Fe       7.54254000       1.43077000       8.06710000       0.33636900      -1.31354300       0.06591500       0.67732660      -0.90279516       0.27013025
Fe       6.83339000       5.01847000       0.43089000       4.01851000      -1.75305200       1.07569000       3.87669047      -1.41515737       1.22911492
Fe       7.80095000       6.57346000       4.77816000       4.73736500       1.98019500       6.49954800       4.67773232       1.82165278       6.40858443
Fe       8.33789000       5.95118000       7.24348000       2.01691100      -0.30640800      -0.91254000       2.38618589      -0.46530496      -0.98404073
Fe       7.34696000       7.25711000       1.28757000       7.90645500      -4.42309700       1.23948600       7.62075488      -4.31882332       1.27452551
Fe       7.43242000       8.44439000       3.63072000      -1.39910700       0.40142200      -0.15691100      -1.37497371       0.60763762      -0.06771624
B        1.97996000       5.43579000       5.32338000      -0.33243100       1.61500000       5.95131600      -0.85050717       1.38845568       5.98199996
B        0.49461000       6.49135000       2.99766000      -0.31705400       0.59177900      -0.01053800      -0.47170652       0.44800216       0.14260833
B        3.37504000       7.40708000       5.38089000      -5.99801200       0.47595800      -0.02338300      -5.39269433       0.76238719       0.47003910
B        4.96515000       4.52318000       6.89092000       3.31349400      -3.18234200       1.78657900       3.14754552      -2.86990069       1.44112823
B        5.58896000       5.84005000       1.76460000       0.64861700       0.75442100       1.21706300       0.65796126       0.75864737       1.00887941
B        5.83801000       7.06270000       4.90751000       3.37632700      -0.49791000      -0.21154100       2.98624815      -0.04709954      -0.00873246
B        4.61582000       6.31906000       5.77296000      -1.03151500      -4.56273800      -3.32360500      -1.20041985      -4.83703451      -2.77999378
B        5.97309000       7.45393000       2.31973000      -2.96928400       1.09257400       2.97626800      -2.87747439       0.90365057       3.06411151
B        4.33874000       7.29192000       4.22868000       1.12064900       0.81723600       0.43610100       0.60886973       0.88010603      -0.59423460
B        7.72559000       4.19378000       4.57689000      -0.45124300       3.98855700      -2.90870800      -0.58997281       3.97133545      -3.00724609
Si       2.36775000       1.39684000       1.89633000       1.21065900       0.18949800       0.44841900       1.18605987       0.06658815       0.25687969
Si       2.71399000       1.54914000       5.95224000      -0.97150700       1.13117000       2.76442000      -0.64432232       0.80444255       2.41813116
Si       3.28955000       3.98982000       4.60004000       0.74842900      -0.88155400       4.79535100       0.74433895      -1.03833457       3.96311866
Si       2.89881000       5.25907000       1.19827000      -0.23285300      -0.18968200       0.16399200      -0.41185062      -0.35061796       0.13390754
Si       3.70049000       7.63232000       0.08133000      -4.14839400      -0.17279700       2.68798100      -4.00245833       0.03581877       2.71786613
Si       6.67656000       0.73535000       1.44116000      -3.60544400       3.39071100       0.89862900      -3.65640569       3.02086553       0.99806252
Si       7.67019000       0.53497000       5.89855000      -0.08039200      -1.77360700       0.76356800      -0.16012686      -1.43843082       0.57999406
Si       8.29725000       2.99648000       0.96254000      -1.13453400      -3.27728700       0.33879000      -1.31812623      -3.18103382       0.43655577
Si       7.40923000       4.02958000       6.96965000      -1.81600400       0.96913600       4.48163600      -1.43186857       0.52479226       4.52674110
Si       7.01249000       5.74161000       3.32202000      -3.98624800      -2.98766700      -5.79576500      -3.83330618      -2.82866625      -5.87311015
54
Lattice="8.579999685 0.0 0.0 0.0 8.579999685 0.0 0.0 0.0 8.5799996" Properties=species:S:1:pos:R:3:REF_forces:R:3:MACE_forces:R:3 config_type=random2 REF_energy=-358.18453515 MACE_energy=-357.43566733000876 pbc="T T T"
Fe       0.67784000       1.42600000       4.73270000       0.73286300      -0.83759600      -0.86363300       0.92531421      -0.43551538      -0.85463532
Fe       1.80600000       0.78628000       7.98152000      -0.21501700       4.54628000       1.47421800      -0.05303082       4.58243836       1.46830994
Fe       1.72820000       3.31227000       3.62866000       1.47689300      -1.16474500       0.84209400       1.79215586      -1.36236237       0.86152644
Fe       1.26949000       3.60873000       6.28045000      -2.30845800       2.47241900      -0.02322800      -2.61943101       2.34008234       0.27404546
Fe       0.99472000       5.31230000       0.60430000      -2.51259200      -1.02653900      -1.17393400      -2.21989268      -1.00244817      -1.31089161
Fe       0.20061000       4.55674000       2.88710000      -1.84897700      -0.58032100      -0.41954500      -1.68260960      -0.63851509      -0.48666323
Fe       0.17403000       7.49971000       0.22557000      -1.18320700      -1.63527800      -1.18960000      -1.27211897      -1.66518885      -0.96697112
Fe       2.11762000       7.20795000       1.12963000      -8.60668700      -2.28539000       6.55154800      -8.52302599      -2.32139598       6.81499460
Fe       1.53173000       7.83266000       3.80603000      -1.65905400      -0.11404600      -0.89610500      -1.37923731      -0.13858163      -0.83246469
Fe       1.74486000       7.54079000       7.38183000      -0.77016800      -2.84296400      -4.33487700      -0.22918180      -2.92793011      -4.55449686
Fe       3.56186000       0.47927000       3.91303000      -0.80393000       0.09573100       0.48864500      -0.45096505       0.27455031       0.74998890
Fe       2.69544000       3.32913000       8.35331000      -0.91529500      -1.37466700      -1.27096300      -1.12984528      -1.04843234      -1.40938831
Fe       2.50726000       5.55253000       3.00891000      -3.70845900       1.84549900       7.06229400      -3.51684851       1.63034377       6.95744020
Fe       2.66303000       5.37632000       6.86323000       1.34009500       0.58131700      -1.07274400       0.97707384       0.60296616      -1.01660225
Fe       3.68938000       7.29321000       2.47293000       0.29505500       3.79600900       1.74225700       0.45202706       3.74357033       1.88687769
Fe       5.40299000       0.02262000       0.28245000       1.09754400       1.37381700      -0.56286500       0.84379969       1.24946194      -0.67312875
Fe       4.76280000       2.19193000       4.29489000       2.19427600      -1.08862000       1.63743200       2.08901010      -1.09646597       1.22534137
Fe       5.87698000       1.49013000       6.50500000      -2.18598600       1.19192000       1.46600100      -2.12011143       1.15987120       1.37437522
Fe       4.48055000       3.07540000       2.45780000      -2.84622400       3.45030800      -0.21057900      -2.55269476       3.15771683      -0.28166512
Fe       4.83688000       2.94002000       8.43684000       0.49024200       0.44080300      -1.29325900       0.53054061       0.50943583      -1.13079038
Fe       4.30622000       5.52054000       0.10302000       2.65356400      -0.61538500      -1.14058600       2.25221563      -0.68351214      -1.33890053
Fe       4.85577000       5.68427000       3.22538000     -13.58892600      -0.68123400       5.77741200     -13.49394108      -1.23490781       5.09527432
Fe       5.84993000       6.63152000       7.18110000       2.03459500      -3.33577600       1.78593900       2.03112708      -3.52875984       1.40852597
Fe       4.72930000       7.89323000       6.40878000      -2.94043200       3.01534400      -1.87259700      -3.09942371       3.12066105      -1.81431728
Fe       8.57594000       0.14462000       1.86915000       1.84558700       1.97931100       0.93135500       1.51602260       1.94256343       0.87726310
Fe       7.40625000       0.48915000       3.55738000      -1.33936600      -1.43260200       0.55771200      -1.31210748      -1.25333703       0.63603386
Fe       7.75862000       0.67902000       8.04704000      -0.77003900       0.72030400      -0.65512800      -0.71203523       0.66986799      -0.62701719
Fe       7.46465000       2.57205000       3.33742000      -0.45460800       2.06343200      -2.84623400      -0.53860349       1.75127297      -2.25872476
Fe       7.51645000       2.84284000       5.46098000       2.51807600      -2.81291200       2.63874200       2.28378796      -2.51959825       2.05174291
Fe       7.11718000       5.17386000       0.62422000       0.27145600      -0.82583000       2.77819000      -0.17239476      -0.73065807       2.73016589
Fe       6.51145000       4.47616000       5.19496000      -3.21759500       3.62253300      -0.00675500      -3.23648089       3.27216355      -0.04834656
Fe       6.97347000       7.04758000       1.38649000       0.48266800       2.22145100      -0.50307700       0.28180591       2.49706526      -0.58754267
Fe       8.10334000       7.04288000       4.95886000      -1.48616400      -0.51613500      -4.54135800      -1.48151051      -0.90383728      -4.39628881
Fe       8.05258000       6.29152000       6.99912000      -5.65637200      -2.13614500       5.60244700      -5.69959642      -2.42396522       5.67520542
B        0.04547000       6.36131000       2.63966000       0.55615900       2.89343100      -0.65487300       0.56566943       2.95402545      -0.76750164
B        0.78760000       6.41749000       6.11718000       8.96866000      -1.86484800      -4.88573100       8.78207416      -1.39453894      -5.13775528
B        3.88199000       6.18665000       5.24393000       2.40535200      -4.52291800       1.86480100       2.55367996      -3.92208783       2.13267236
B        2.47083000       6.65446000       5.06009000      -4.16668300       1.63659100       0.72991100      -4.63504837       1.16420396       0.96491839
B        5.17040000       4.43420000       7.03607000      -0.49407400       0.60408200      -0.07071100      -0.21061984       0.70472127       0.00713636
B        4.98477000       7.02089000       1.26112000       2.69184300      -1.01715200      -0.23867300       2.80252731      -0.98034592      -0.04079043
B        6.14089000       6.45683000       4.80405000      -1.30138100       0.95082900       0.28639900      -1.19798500       0.82593375       0.23474419
B        6.13162000       8.43071000       2.35098000      -2.35722900       0.80301000      -1.64851700      -2.39258510       0.73531308      -1.29468285
B        4.56795000       7.37597000       4.51000000       1.08899100       1.91413600      -2.46424300       1.39722523       1.61053792      -2.08694486
B        8.43856000       4.83510000       4.92882000       1.36608400      -0.27092900       0.38228600       1.03912873       0.01325597       0.66128454
Si       2.33663000       0.88304000       1.86191000       0.20378000       0.67375300       0.48954000      -0.13906933       0.43369808       0.29753553
Si       2.47060000       2.01787000       5.82671000       3.44729400      -2.77017900       0.28477400       3.08177417      -2.47261196       0.10540312
Si       3.99754000       3.90209000       5.28043000      -0.52173300       2.24871100       0.56615500      -0.65141650       2.34840593       0.60093277
Si       2.88628000       4.75003000       1.35877000       1.35107300      -4.46219800      -1.82910400       1.42416964      -3.97231917      -1.93367931
Si       3.44659000       7.61488000       0.02362000       9.22872600       3.26579400      -6.84666600       9.04314693       3.02536231      -6.92818827
Si       5.84087000       1.88518000       1.47006000       1.98939500      -2.63771400       1.14825400       2.04732148      -2.36645132       1.17765809
Si       7.50409000       0.39762000       5.72805000       0.28887500      -1.01436500       1.80494100       0.35095666      -0.73796981       1.73133404
Si       7.89236000       2.62826000       0.60996000       1.84518100       0.08413200       2.31178300       2.00850803       0.06901547       2.06691726
Si       7.19466000       4.02992000       7.62402000      -0.41245200      -1.87945400      -6.47557700      -0.19943854      -1.55064384      -6.34133870
Si       6.49362000       5.60380000       2.83650000      15.40678400      -2.74500600      -1.21396800      15.85018719      -3.07612418      -0.94793116
54
Lattice="8.579999685 0.0 0.0 0.0 8.579999685 0.0 0.0 0.0 8.5799996" Properties=species:S:1:pos:R:3:REF_forces:R:3:MACE_forces:R:3 config_type=random2 REF_energy=-360.24557691 MACE_energy=-358.46822462020407 pbc="T T T"
Fe       0.15602000       0.52795000       0.11788000       1.50118900       2.12647900      -0.69082500       1.48710416       1.94123740      -1.13037509
Fe       1.70518000       0.91529000       6.12502000      -0.09988400      -0.42418000       1.68375300      -0.15163079      -0.54517642       1.85039685
Fe       1.54966000       2.36852000       1.06669000      -5.85953100      -4.36721300       0.56745300      -6.95755007      -5.10313688       0.58409197
Fe       1.02665000       1.75632000       4.18103000      -1.38605400      -0.36095700      -0.43690800      -1.69630442       0.28335063      -0.19228538
Fe       1.06359000       3.94918000       2.34805000       0.69749000      -0.85774700       5.96520700       0.62224421       0.06546739       6.78996255
Fe       1.28487000       3.20120000       7.58043000       3.39307500      -0.26984800       2.42083000       3.05459820      -0.61720059       0.92452234
Fe       1.14161000       6.71049000       0.83829000      -0.40864800      -2.86541500      -0.56258600      -0.59708209      -2.53877821      -0.79431933
Fe       0.40301000       6.75556000       3.85346000      -3.54681400      -2.71605200       0.53524600      -3.35817290      -2.31133967       0.55359309
Fe       2.42406000       1.07205000       2.77097000       0.17396900      -0.59415600       0.13555400       0.52537913      -0.52288622      -0.00576028
Fe       3.41034000       2.05710000       0.70145000       6.42881300      -5.02873900      -4.48941300       7.16836988      -5.15110776      -4.27851038
Fe       2.29718000       4.17321000       0.18921000       8.27262100       4.83321100       0.27939000       8.23634009       4.93758293       0.01116363
Fe       3.97525000       3.01933000       3.45467000      -3.56965100      -1.67327500       4.17175000      -3.45678389      -1.50638358       4.17578870
Fe       2.31555000       3.12797000       5.45181000      -0.56424300       1.47291700      -0.72207500      -0.46418464       1.54854725      -0.81718985
Fe       4.14051000       4.67154000       7.32496000      -1.85033600      -2.49705600      -3.03953400      -1.56323111      -1.93786512      -3.08853061
Fe       3.30273000       6.05901000       1.51938000       1.42520300      -0.93348100       5.20094300       1.21446714      -0.96420208       5.14223687
Fe       2.31083000       5.81669000       6.24071000      -1.65695700      -1.97484000      -1.83228700      -1.90249814      -2.12748056      -1.81995198
Fe       4.23546000       8.36043000       1.12111000      -3.48153700      -2.75255200      -1.29453300      -3.40821666      -2.68486205      -1.25101238
Fe       3.23987000       7.53891000       5.51734000      -0.21665400       2.51274300      -1.38503500      -0.14645448       2.01959420      -1.09521187
Fe       5.12946000       0.94550000       4.94399000      -0.11299800       0.77990500       2.32699000       0.00818525       0.73308030       1.89804577
Fe       5.13589000       1.13489000       7.61232000      -2.35192000      -2.47185700      -1.54459000      -1.86726482      -2.25861066      -1.28979013
Fe       5.77866000       4.23588000       4.79030000      -1.29299100      -0.33304200      -0.54889500      -1.48436053      -0.53245411      -0.56196435
Fe       5.21312000       5.43128000       0.36944000       0.48480600      -1.77457800       2.45456000       0.36224681      -1.83018502       2.40199028
Fe       6.29545000       5.29844000       6.90813000       0.27479600       0.56550300      -0.15217800      -0.10373424       1.30678293       0.25109446
Fe       6.35692000       7.06671000       0.82505000      -3.36239600      -4.01210700       4.38604600      -3.36829508      -3.81634671       4.38688448
Fe       5.03038000       6.83997000       3.89378000      -5.77025900      -0.16605500       1.32235200      -5.61231308       0.31371211       1.00793775
Fe       4.78652000       7.09563000       7.12705000       1.46620700       1.40382700      -0.48359700       1.47877489       1.18644534      -0.38487633
Fe       6.27758000       8.37043000       3.24816000       2.63331000      -0.39926000      -1.09188300       2.30513304      -0.56632880      -1.32459575
Fe       6.66778000       2.25230000       0.37441000       0.46215200       5.56438900      -2.13561400       0.59336773       5.24976309      -1.77353526
Fe       7.36634000       1.80676000       3.25099000      -1.00720600       0.66121700       0.12043400      -0.81937904       0.37744114       0.03064348
Fe       7.20940000       4.10018000       1.95385000       2.57566800      -1.48999600      -0.86593000       2.27713515      -1.90066826      -0.56786121
Fe       7.94471000       3.72778000       4.77598000       1.55881000      -0.58188700      -6.79754900       1.66969449      -0.66068061      -6.27254353
Fe       6.75768000       6.07296000       3.66358000       3.93722500      -2.42586800      -1.10133600       4.09248936      -2.56852738      -1.05142256
Fe       8.21458000       8.08402000       1.87626000      -0.44151800      -0.26603100       3.30322800      -0.69356877      -0.15849164       3.37639912
Fe       7.36868000       8.08437000       5.29726000       0.43877100       0.17228300       0.46133200       0.64458364       0.04671875       0.64142289
B        0.46931000       2.86958000       6.22296000      -3.80288900      -1.09387000      -7.26709800      -2.85369224      -1.10364344      -6.63570685
B        0.79690000       4.64043000       0.78277000      -5.70109500       2.77781200      -1.37694100      -5.25717726       3.04197803      -1.31398282
B        0.73908000       6.06271000       7.33363000       1.54267100       0.77045400       1.64299100       0.90781540       0.64912253       1.49579101
B        1.70695000       8.30838000       1.61351000       0.69871300       2.04304800      -1.19793700       0.53681617       1.72214816      -0.96374286
B        1.06367000       7.86886000       5.17764000       0.71186900       0.56033400       0.46457700       0.37784683       0.70612154       0.48838690
B        3.05807000       3.31560000       1.75331000       0.60245100       5.37233400       4.97576700       0.62542042       5.23256470       4.98148726
B        4.11376000       3.15831000       5.72174000       0.08260300      -0.21738500      -1.78505000       0.44109803       0.05073046      -1.62082255
B        8.14039000       2.18508000       1.52896000       1.19434400      -0.12824400       0.69320900       1.20052142      -0.11365865       0.72892230
B        8.39030000       2.05308000       7.53614000      -1.77848500      -1.83154800       0.20619400      -1.55908111      -1.88504910       0.56244743
B        8.30153000       5.45928000       1.83309000       1.20856300       4.13672900       0.40624600       1.68039410       4.49969614       0.51008643
Si       3.00019000       6.35380000       8.16132000      -1.19834300       2.89758700      -2.26894600      -1.28513603       2.80398602      -1.68035656
Si       2.24659000       7.26192000       3.26474000       4.14484200       1.08172900      -0.14133900       4.09588982       0.73299103      -0.22930345
Si       6.17884000       0.45233000       0.83743000       1.44634700      -0.49623800       2.03270200       1.57863692      -0.31950292       1.66081388
Si       4.64336000       1.00099000       2.78500000      -0.82361900       2.27383700       0.17243100      -0.83981541       2.07129286       0.32247952
Si       5.30071000       3.73874000       2.23321000      -1.13801900       1.40766600      -1.97244000      -1.36596702       1.19736600      -2.27721809
Si       5.60784000       3.05108000       6.86204000       1.78633600       1.16462800       1.21292600       1.60256451       0.50945894       1.01888245
Si       7.37786000       2.01899000       5.63982000      -1.85188300      -4.99033500       0.63073900      -2.15172557      -5.03013447       0.21241767
Si       7.84836000       3.98525000       7.99758000      -1.73886300       0.76335000       2.02910200      -1.43095173       1.24366320       1.35730889
Si       8.18070000       5.21779000       5.96080000       2.99103300       5.24835700       0.50260400       2.60272065       4.99120918       0.21234233
Si       7.85457000       7.16215000       8.23590000       2.87892000      -0.59652700      -5.12003700       3.00473368      -0.70735134      -5.15667084
54
Lattice="8.579999685 0.0 0.0 0.0 8.579999685 0.0 0.0 0.0 8.5799996" Properties=species:S:1:pos:R:3:REF_forces:R:3:MACE_forces:R:3 config_type=random2 REF_energy=-365.22575864 MACE_energy=-364.2730934716923 pbc="T T T"
Fe       0.20349000       0.43692000       2.30233000      -1.19759000      -0.05132300      -0.31775900      -1.08328877      -0.24056742      -0.32356495
Fe       0.51917000       1.17401000       4.74302000       2.78563200      -1.27976500      -1.64547000       2.55857096      -1.35740794      -1.60307587
Fe       1.38751000       3.23006000       6.69712000      -2.06380500      -0.45204200      -2.64816400      -1.35542096      -0.11382751      -2.54162315
Fe       1.21974000       4.87952000       0.40100000      -2.47724400       1.11533000      -0.99296900      -2.36062185       0.97357141      -0.49151750
Fe       1.97573000       5.54310000       2.88466000       6.09622800      -0.22804000       0.22274800       6.54910714      -0.23083650       0.28625273
Fe       0.24724000       4.67275000       3.31002000       1.25657100      -3.26273900       0.49527800       1.82720994      -3.89976294       0.68413872
Fe       2.05879000       7.00765000       1.04459000      -2.72119300      -0.03775000      -3.04789100      -2.78156189      -0.22605238      -3.04496370
Fe       1.63798000       7.40648000       3.82765000       2.29920100       2.88972100       2.98139100       1.99833166       2.85393390       2.63485971
Fe       1.09226000       7.58547000       7.07334000       0.04029200       2.73525000       0.31147100       0.04912800       2.52829859       0.18423327
Fe       3.60090000       0.57134000       3.89250000       0.69494200       2.40229900      -4.05887500       0.33075083       2.99682101      -4.26522341
Fe       2.65991000       1.09437000       7.86419000      -1.14458000      -0.85522600       2.26630900      -1.03675464      -1.00713245       1.94290115
Fe       2.24446000       3.37294000       4.01156000       1.54847400      -3.07575300       1.59871500       1.36982660      -2.92313950       1.72483837
Fe       2.60814000       3.36778000       8.29224000       2.86850300      -0.48023700       1.04871300       2.77820897      -0.58961112       0.20219902
Fe       3.82657000       5.53146000       0.39663000      -0.49871600      -1.08215200       0.37044000      -0.90226537      -0.83334891       0.46730323
Fe       2.40237000       5.93309000       6.71186000       1.66007800      -1.91531100      -0.54914500       1.41891643      -1.90601496      -0.31952931
Fe       3.83124000       7.22984000       2.26002000       1.16293400      -0.34641600       3.49778100       1.39625098      -0.73298532       3.22110728
Fe       3.99920000       8.45773000       5.51692000       1.28512400      -7.68078000       2.95796600       1.90443428      -7.57558752       3.66326948
Fe       5.22444000       0.95706000       0.14198000      -0.41599900      -1.79364900       3.26990900      -0.44634620      -1.51065714       3.28544854
Fe       5.45558000       1.13972000       6.57432000       2.20837100       0.47887400      -0.56599300       2.24420548       0.26761672      -0.88947429
Fe       5.26466000       2.27135000       4.41008000      -0.17510500       1.86037900      -0.00881300      -0.61468247       1.79846054      -0.12156482
Fe       4.35232000       3.74890000       2.00519000       5.41658000      -2.25214300      -0.60695800       5.35916745      -2.71668451      -0.88046567
Fe       4.94500000       3.07245000       8.16952000       0.69532600       1.35147200      -0.28201500       0.50930587       1.42114095      -0.46523400
Fe       4.72549000       5.27621000       3.27777000       2.48098000       1.19615400       0.41763500       2.65575968       1.84876961       0.58783835
Fe       5.66786000       6.71115000       7.78034000       3.01066600       0.48468200      -0.64974500       2.89824663       0.36980123      -0.27190000