54
Lattice="8.579999685 0.0 0.0 0.0 8.579999685 0.0 0.0 0.0 8.5799996" Properties=species:S:1:pos:R:3:REF_forces:R:3:MACE_forces:R:3 config_type=random2 REF_energy=-363.25552073 MACE_energy=-362.32035566348964 pbc="T T T"
Fe       0.14554000       0.51178000       1.72883000       1.59155600       1.69646400       0.64593400       1.70422339       1.59317333       0.53914253
Fe       0.72405000       1.36449000       4.41023000      -1.29379600       2.22691100       1.75321500      -1.68251796       2.27142112       2.34721593
Fe       1.28013000       1.28154000       8.53445000       0.26225800      -1.72780100      -2.25359700       0.78764763      -0.99004158      -1.82667541
Fe       1.78304000       2.91528000       3.50993000      -2.09245800       1.32746400      -0.69437800      -1.86722152       1.00553564      -0.88394044
Fe       0.75698000       4.21862000       5.92458000       2.67674200       0.07621400       0.69283600       2.54860272       0.02776414       0.53729166
Fe       0.63053000       4.76090000       0.44438000       2.96454100       3.11113800      -1.75676200       2.74469711       2.62308853      -1.97691345
Fe       0.02633000       4.52370000       2.53911000       1.51365300       0.35504600       1.69572400       1.14200482       0.05423634       2.27731901
Fe       1.82831000       7.54412000       1.78795000       0.87467800      -2.32144700      -3.97784800       1.07742215      -2.32735489      -3.70985312
Fe       1.35484000       8.36643000       3.60252000      -0.64195500      -5.00077700       1.37065900      -0.61301051      -4.75382389       0.96467074
Fe       0.00278000       7.66371000       8.06149000       0.84677900       3.28625900       0.13433000       1.03552583       3.69851530       0.15486553
Fe       3.20977000       0.65911000       4.08840000       1.20299600       0.08567500       0.16844000       1.73276870       0.31881741       0.38898734
Fe       3.81428000       3.40248000       2.69765000       1.92092000      -1.15662700      -3.56356700       1.69966760      -0.91051750      -3.18535794
Fe       2.27468000       3.19194000       8.08871000       0.59526400       1.04068000       0.20830700       0.73039900       0.75807579      -0.07998162
Fe       2.36527000       5.68967000       3.77721000      -1.32118300       3.62799500      -7.73735100      -0.85391550       3.44601326      -7.59018483
Fe       3.31539000       4.98429000       6.86176000      -4.76733700       1.31799100      -0.15025300      -4.64115726       1.38381258      -0.35804081
Fe       4.14047000       8.03537000       2.57836000      -0.12326500       0.71998900      -4.54677200      -0.37799236       0.19065133      -4.17480475
Fe       2.33721000       7.37963000       6.97430000      -3.25408300      -0.42617300       0.11952900      -2.95711425      -0.17307683      -0.05585472
Fe       5.49649000       2.81617000       0.00560000      -0.38440000       1.06482400       2.77431200      -0.79029736       0.82167313       2.94926871
Fe       4.90462000       2.19117000       4.68344000      -0.30939700      -0.22068900       0.15476200      -0.47424622      -0.29466726       0.25982230
Fe       6.05887000       2.28929000       6.72430000      -2.40764300      -1.20527600      -2.21344100      -2.44199495      -1.24915148      -2.73578451
Fe       4.96066000       5.38738000       0.05685000      -5.52595300       0.24353800      -1.43029300      -5.69653587       0.36691033      -1.01087337
Fe       4.63277000       5.58711000       3.43909000       0.15670200       0.36247400      -2.39573300       0.62784412       0.61791847      -1.84117276
Fe       5.47216000       4.57113000       5.11890000       2.10490400      -2.93581200      -1.75472200       2.23398891      -2.45978970      -1.95490166
Fe       6.30403000       5.90903000       6.68980000       0.34040700       3.61786100       1.57378600      -0.26973231       3.58211085       0.61783589
Fe       5.70388000       7.66893000       0.29664000      -0.15104200       0.56316800      -2.35128400      -0.04824243       0.82448654      -2.63187873
Fe       4.59755000       7.72233000       6.72559000       2.86127800       5.76095300       2.11819400       3.12384563       5.49118240       1.95565101
Fe       6.69102000       2.72189000       3.39445000       0.82746800       0.11261800      -1.32677500       0.72153904       0.09554599      -1.42144373
Fe       7.82489000       2.79083000       5.52653000       0.57260400      -7.67863200      -2.50501700       0.54110806      -7.43589530      -2.31564017
Fe       7.54254000       1.43077000       8.06710000       0.33636900      -1.31354300       0.06591500       0.65597051      -1.00661668       0.29217411
Fe       6.83339000       5.01847000       0.43089000       4.01851000      -1.75305200       1.07569000       4.24925362      -1.42234462       1.28224676
Fe       7.80095000       6.57346000       4.77816000       4.73736500       1.98019500       6.49954800       4.70529233       1.81414129       6.45441137
Fe       8.33789000       5.95118000       7.24348000       2.01691100      -0.30640800      -0.91254000       2.32337416      -0.48162535      -1.06234191
Fe       7.34696000       7.25711000       1.28757000       7.90645500      -4.42309700       1.23948600       7.55613854      -4.57506071       1.42727260
Fe       7.43242000       8.44439000       3.63072000      -1.39910700       0.40142200      -0.15691100      -1.35873995       0.42269179      -0.13055946
B        1.97996000       5.43579000       5.32338000      -0.33243100       1.61500000       5.95131600      -0.68402244       1.30752701       5.88558896
B        0.49461000       6.49135000       2.99766000      -0.31705400       0.59177900      -0.01053800      -0.38602789       0.48566623       0.19153510
B        3.37504000       7.40708000       5.38089000      -5.99801200       0.47595800      -0.02338300      -5.43224336       0.84785203       0.40650733
B        4.96515000       4.52318000       6.89092000       3.31349400      -3.18234200       1.78657900       3.11431363      -3.00546170       1.39287028
B        5.58896000       5.84005000       1.76460000       0.64861700       0.75442100       1.21706300       0.67669678       0.84328140       0.91306535
B        5.83801000       7.06270000       4.90751000       3.37632700      -0.49791000      -0.21154100       2.97394916      -0.30912374       0.15042192
B        4.61582000       6.31906000       5.77296000      -1.03151500      -4.56273800      -3.32360500      -1.06040607      -4.92150753      -2.80312577
B        5.97309000       7.45393000       2.31973000      -2.96928400       1.09257400       2.97626800      -2.81776130       0.88227260       3.11542525
B        4.33874000       7.29192000       4.22868000       1.12064900       0.81723600       0.43610100       0.59799026       0.83793273      -0.52849171
B        7.72559000       4.19378000       4.57689000      -0.45124300       3.98855700      -2.90870800      -0.50364444       3.91233059      -2.82691880
Si       2.36775000       1.39684000       1.89633000       1.21065900       0.18949800       0.44841900       1.20999831      -0.09710039       0.38696504
Si       2.71399000       1.54914000       5.95224000      -0.97150700       1.13117000       2.76442000      -0.75922999       0.84116328       2.45897127
Si       3.28955000       3.98982000       4.60004000       0.74842900      -0.88155400       4.79535100       1.00593749      -0.98439736       4.09321570
Si       2.89881000       5.25907000       1.19827000      -0.23285300      -0.18968200       0.16399200      -0.41684718      -0.33492280       0.20977747
Si       3.70049000       7.63232000       0.08133000      -4.14839400      -0.17279700       2.68798100      -4.27321645       0.06147943       2.57294328
Si       6.67656000       0.73535000       1.44116000      -3.60544400       3.39071100       0.89862900      -3.68028068       3.37736350       1.05857417
Si       7.67019000       0.53497000       5.89855000      -0.08039200      -1.77360700       0.76356800      -0.26025302      -1.53680780       0.55348849
Si       8.29725000       2.99648000       0.96254000      -1.13453400      -3.27728700       0.33879000      -1.43228872      -3.23703109       0.39284316
Si       7.40923000       4.02958000       6.96965000      -1.81600400       0.96913600       4.48163600      -1.52383126       0.52118658       4.67831076
Si       7.01249000       5.74161000       3.32202000      -3.98624800      -2.98766700      -5.79576500      -4.21742822      -2.81950273      -5.80393937
54
Lattice="8.579999685 0.0 0.0 0.0 8.579999685 0.0 0.0 0.0 8.5799996" Properties=species:S:1:pos:R:3:REF_forces:R:3:MACE_forces:R:3 config_type=random2 REF_energy=-358.18453515 MACE_energy=-357.33574397282484 pbc="T T T"
Fe       0.67784000       1.42600000       4.73270000       0.73286300      -0.83759600      -0.86363300       0.82092074      -0.45922223      -1.04283517
Fe       1.80600000       0.78628000       7.98152000      -0.21501700       4.54628000       1.47421800      -0.16075557       4.64727776       1.48341588
Fe       1.72820000       3.31227000       3.62866000       1.47689300      -1.16474500       0.84209400       1.81510047      -1.34198947       0.87053770
Fe       1.26949000       3.60873000       6.28045000      -2.30845800       2.47241900      -0.02322800      -2.63825765       2.49518691       0.26401376
Fe       0.99472000       5.31230000       0.60430000      -2.51259200      -1.02653900      -1.17393400      -2.33450018      -1.03963561      -1.39224279
Fe       0.20061000       4.55674000       2.88710000      -1.84897700      -0.58032100      -0.41954500      -1.75688085      -0.66127322      -0.45676764
Fe       0.17403000       7.49971000       0.22557000      -1.18320700      -1.63527800      -1.18960000      -1.22763738      -1.71023867      -1.06119815
Fe       2.11762000       7.20795000       1.12963000      -8.60668700      -2.28539000       6.55154800      -8.58356667      -2.32412306       6.78999846
Fe       1.53173000       7.83266000       3.80603000      -1.65905400      -0.11404600      -0.89610500      -1.40801773      -0.03270882      -0.86187134
Fe       1.74486000       7.54079000       7.38183000      -0.77016800      -2.84296400      -4.33487700      -0.30843355      -3.05082943      -4.63574490
Fe       3.56186000       0.47927000       3.91303000      -0.80393000       0.09573100       0.48864500      -0.60686560       0.44423687       0.86237131
Fe       2.69544000       3.32913000       8.35331000      -0.91529500      -1.37466700      -1.27096300      -1.05111274      -1.02945398      -1.45840094
Fe       2.50726000       5.55253000       3.00891000      -3.70845900       1.84549900       7.06229400      -3.59432674       1.54503689       7.02737423
Fe       2.66303000       5.37632000       6.86323000       1.34009500       0.58131700      -1.07274400       1.02123844       0.56912323      -0.86243522
Fe       3.68938000       7.29321000       2.47293000       0.29505500       3.79600900       1.74225700       0.41657358       3.82927091       1.89453759
Fe       5.40299000       0.02262000       0.28245000       1.09754400       1.37381700      -0.56286500       1.02156455       1.34747540      -0.78409259
Fe       4.76280000       2.19193000       4.29489000       2.19427600      -1.08862000       1.63743200       2.12488557      -1.00068814       1.23179009
Fe       5.87698000       1.49013000       6.50500000      -2.18598600       1.19192000       1.46600100      -2.23104923       1.23900636       1.43107188
Fe       4.48055000       3.07540000       2.45780000      -2.84622400       3.45030800      -0.21057900      -2.47043433       3.16616482      -0.24295241
Fe       4.83688000       2.94002000       8.43684000       0.49024200       0.44080300      -1.29325900       0.55439337       0.52108602      -1.16984335
Fe       4.30622000       5.52054000       0.10302000       2.65356400      -0.61538500      -1.14058600       2.33925614      -0.68572109      -1.40190922
Fe       4.85577000       5.68427000       3.22538000     -13.58892600      -0.68123400       5.77741200     -13.25109639      -1.26385468       5.19924240
Fe       5.84993000       6.63152000       7.18110000       2.03459500      -3.33577600       1.78593900       1.98378488      -3.49904825       1.44559141
Fe       4.72930000       7.89323000       6.40878000      -2.94043200       3.01534400      -1.87259700      -3.00390552       3.15787576      -1.73702529
Fe       8.57594000       0.14462000       1.86915000       1.84558700       1.97931100       0.93135500       1.51238552       1.96431744       0.86943699
Fe       7.40625000       0.48915000       3.55738000      -1.33936600      -1.43260200       0.55771200      -1.34624591      -1.36185795       0.67735810
Fe       7.75862000       0.67902000       8.04704000      -0.77003900       0.72030400      -0.65512800      -0.81506011       0.69328672      -0.60779229
Fe       7.46465000       2.57205000       3.33742000      -0.45460800       2.06343200      -2.84623400      -0.54886160       1.78745155      -2.25430535
Fe       7.51645000       2.84284000       5.46098000       2.51807600      -2.81291200       2.63874200       2.34860698      -2.69870312       2.15931677
Fe       7.11718000       5.17386000       0.62422000       0.27145600      -0.82583000       2.77819000      -0.03667840      -0.91654813       2.81963852
Fe       6.51145000       4.47616000       5.19496000      -3.21759500       3.62253300      -0.00675500      -3.40614953       3.33542560       0.11520030
Fe       6.97347000       7.04758000       1.38649000       0.48266800       2.22145100      -0.50307700       0.41474271       2.71618259      -0.51951354
Fe       8.10334000       7.04288000       4.95886000      -1.48616400      -0.51613500      -4.54135800      -1.65568606      -0.78901230      -4.61342362
Fe       8.05258000       6.29152000       6.99912000      -5.65637200      -2.13614500       5.60244700      -5.63470761      -2.34581866       5.66468659
B        0.04547000       6.36131000       2.63966000       0.55615900       2.89343100      -0.65487300       0.55686392       2.99838195      -0.84657905
B        0.78760000       6.41749000       6.11718000       8.96866000      -1.86484800      -4.88573100       8.92369034      -1.45994108      -5.02361334
B        3.88199000       6.18665000       5.24393000       2.40535200      -4.52291800       1.86480100       2.52303494      -4.08556997       2.05176157
B        2.47083000       6.65446000       5.06009000      -4.16668300       1.63659100       0.72991100      -4.54447942       1.18754950       0.88754739
B        5.17040000       4.43420000       7.03607000      -0.49407400       0.60408200      -0.07071100      -0.30828482       0.67404238      -0.11372079
B        4.98477000       7.02089000       1.26112000       2.69184300      -1.01715200      -0.23867300       2.90788833      -1.23929572       0.04522874
B        6.14089000       6.45683000       4.80405000      -1.30138100       0.95082900       0.28639900      -1.11644181       0.91467446       0.40267983
B        6.13162000       8.43071000       2.35098000      -2.35722900       0.80301000      -1.64851700      -2.31658708       0.79601839      -1.30094384
B        4.56795000       7.37597000       4.51000000       1.08899100       1.91413600      -2.46424300       1.40488245       1.59087642      -2.17528331
B        8.43856000       4.83510000       4.92882000       1.36608400      -0.27092900       0.38228600       1.11001116      -0.08331877       0.62208745
Si       2.33663000       0.88304000       1.86191000       0.20378000       0.67375300       0.48954000      -0.10829856       0.30324139       0.40561854
Si       2.47060000       2.01787000       5.82671000       3.44729400      -2.77017900       0.28477400       3.27462831      -2.69927671       0.09973478
Si       3.99754000       3.90209000       5.28043000      -0.52173300       2.24871100       0.56615500      -0.59602155       2.41245156       0.65730314
Si       2.88628000       4.75003000       1.35877000       1.35107300      -4.46219800      -1.82910400       1.34450597      -4.01875122      -1.74676018
Si       3.44659000       7.61488000       0.02362000       9.22872600       3.26579400      -6.84666600       8.89278132       3.15554422      -7.14089787
Si       5.84087000       1.88518000       1.47006000       1.98939500      -2.63771400       1.14825400       1.97959385      -2.45855864       1.26034620
Si       7.50409000       0.39762000       5.72805000       0.28887500      -1.01436500       1.80494100       0.39075892      -0.81273786       1.72164627
Si       7.89236000       2.62826000       0.60996000       1.84518100       0.08413200       2.31178300       2.04110936       0.22785208       2.13176716
Si       7.19466000       4.02992000       7.62402000      -0.41245200      -1.87945400      -6.47557700      -0.21169040      -1.68161830      -6.49219218
Si       6.49362000       5.60380000       2.83650000      15.40678400      -2.74500600      -1.21396800      15.54883115      -2.96924207      -1.14895869
54
Lattice="8.579999685 0.0 0.0 0.0 8.579999685 0.0 0.0 0.0 8.5799996" Properties=species:S:1:pos:R:3:REF_forces:R:3:MACE_forces:R:3 config_type=random2 REF_energy=-360.24557691 MACE_energy=-358.7145611199513 pbc="T T T"
Fe       0.15602000       0.52795000       0.11788000       1.50118900       2.12647900      -0.69082500       1.56070510       2.01300050      -1.09730394
Fe       1.70518000       0.91529000       6.12502000      -0.09988400      -0.42418000       1.68375300      -0.18858502      -0.45805789       1.73685107
Fe       1.54966000       2.36852000       1.06669000      -5.85953100      -4.36721300       0.56745300      -7.04565459      -4.95238125       0.49049106
Fe       1.02665000       1.75632000       4.18103000      -1.38605400      -0.36095700      -0.43690800      -1.68252345       0.26341068      -0.16813355
Fe       1.06359000       3.94918000       2.34805000       0.69749000      -0.85774700       5.96520700       0.58857493      -0.14911132       6.66793530
Fe       1.28487000       3.20120000       7.58043000       3.39307500      -0.26984800       2.42083000       3.02175862      -0.64731204       1.11461488
Fe       1.14161000       6.71049000       0.83829000      -0.40864800      -2.86541500      -0.56258600      -0.43424327      -2.57878032      -0.72972973
Fe       0.40301000       6.75556000       3.85346000      -3.54681400      -2.71605200       0.53524600      -3.46889964      -2.35696325       0.63094813
Fe       2.42406000       1.07205000       2.77097000       0.17396900      -0.59415600       0.13555400       0.51146392      -0.53409477      -0.02666710
Fe       3.41034000       2.05710000       0.70145000       6.42881300      -5.02873900      -4.48941300       7.17091400      -5.07503237      -4.20685235
Fe       2.29718000       4.17321000       0.18921000       8.27262100       4.83321100       0.27939000       8.29447647       4.97808650       0.01995692
Fe       3.97525000       3.01933000       3.45467000      -3.56965100      -1.67327500       4.17175000      -3.52440556      -1.52930314       4.26181843
Fe       2.31555000       3.12797000       5.45181000      -0.56424300       1.47291700      -0.72207500      -0.46948029       1.42349793      -0.82986182
Fe       4.14051000       4.67154000       7.32496000      -1.85033600      -2.49705600      -3.03953400      -1.58154813      -2.07548084      -3.22320450
Fe       3.30273000       6.05901000       1.51938000       1.42520300      -0.93348100       5.20094300       1.26971962      -1.02077624       5.29309055
Fe       2.31083000       5.81669000       6.24071000      -1.65695700      -1.97484000      -1.83228700      -1.92275617      -2.12457211      -1.89367759
Fe       4.23546000       8.36043000       1.12111000      -3.48153700      -2.75255200      -1.29453300      -3.36750593      -2.73493700      -1.31350727
Fe       3.23987000       7.53891000       5.51734000      -0.21665400       2.51274300      -1.38503500      -0.12294586       2.07038333      -1.05162195
Fe       5.12946000       0.94550000       4.94399000      -0.11299800       0.77990500       2.32699000       0.06745539       0.82041006       2.07627269
Fe       5.13589000       1.13489000       7.61232000      -2.35192000      -2.47185700      -1.54459000      -1.99990065      -2.36717817      -1.28970443
Fe       5.77866000       4.23588000       4.79030000      -1.29299100      -0.33304200      -0.54889500      -1.49358693      -0.55317460      -0.56417054
Fe       5.21312000       5.43128000       0.36944000       0.48480600      -1.77457800       2.45456000       0.22602571      -1.81867499       2.44956995
Fe       6.29545000       5.29844000       6.90813000       0.27479600       0.56550300      -0.15217800       0.12750016       1.22396973       0.34670408
Fe       6.35692000       7.06671000       0.82505000      -3.36239600      -4.01210700       4.38604600      -3.47952573      -3.98503424       4.49408813
Fe       5.03038000       6.83997000       3.89378000      -5.77025900      -0.16605500       1.32235200      -5.67072207       0.24183513       1.03646754
Fe       4.78652000       7.09563000       7.12705000       1.46620700       1.40382700      -0.48359700       1.54850593       1.31289481      -0.30431938
Fe       6.27758000       8.37043000       3.24816000       2.63331000      -0.39926000      -1.09188300       2.36163058      -0.60033075      -1.42848713
Fe       6.66778000       2.25230000       0.37441000       0.46215200       5.56438900      -2.13561400       0.72370595       5.30464010      -1.73463942
Fe       7.36634000       1.80676000       3.25099000      -1.00720600       0.66121700       0.12043400      -0.87640981       0.33377241      -0.04316393
Fe       7.20940000       4.10018000       1.95385000       2.57566800      -1.48999600      -0.86593000       2.31165773      -1.93775520      -0.68029748
Fe       7.94471000       3.72778000       4.77598000       1.55881000      -0.58188700      -6.79754900       1.72010474      -0.56964188      -6.37123326
Fe       6.75768000       6.07296000       3.66358000       3.93722500      -2.42586800      -1.10133600       4.05890298      -2.54951846      -1.06367392
Fe       8.21458000       8.08402000       1.87626000      -0.44151800      -0.26603100       3.30322800      -0.66826078      -0.19073668       3.55650906
Fe       7.36868000       8.08437000       5.29726000       0.43877100       0.17228300       0.46133200       0.64918339      -0.00391509       0.67523146
B        0.46931000       2.86958000       6.22296000      -3.80288900      -1.09387000      -7.26709800      -2.92670873      -1.10292871      -6.66257588
B        0.79690000       4.64043000       0.78277000      -5.70109500       2.77781200      -1.37694100      -5.29525923       2.92993283      -1.41551168
B        0.73908000       6.06271000       7.33363000       1.54267100       0.77045400       1.64299100       0.99171443       0.59192692       1.57488743
B        1.70695000       8.30838000       1.61351000       0.69871300       2.04304800      -1.19793700       0.61313899       1.74847836      -1.07382883
B        1.06367000       7.86886000       5.17764000       0.71186900       0.56033400       0.46457700       0.40406989       0.63032394       0.46019691
B        3.05807000       3.31560000       1.75331000       0.60245100       5.37233400       4.97576700       0.65470069       5.26871320       4.94966214
B        4.11376000       3.15831000       5.72174000       0.08260300      -0.21738500      -1.78505000       0.30681555       0.02121796      -1.64872011
B        8.14039000       2.18508000       1.52896000       1.19434400      -0.12824400       0.69320900       1.23972324      -0.04981540       0.68726657
B        8.39030000       2.05308000       7.53614000      -1.77848500      -1.83154800       0.20619400      -1.62555599      -1.82816150       0.44328271
B        8.30153000       5.45928000       1.83309000       1.20856300       4.13672900       0.40624600       1.65915858       4.52354008       0.39824910
Si       3.00019000       6.35380000       8.16132000      -1.19834300       2.89758700      -2.26894600      -1.39020416       2.74359166      -1.81178702
Si       2.24659000       7.26192000       3.26474000       4.14484200       1.08172900      -0.14133900       4.06505210       0.81937533      -0.23774870
Si       6.17884000       0.45233000       0.83743000       1.44634700      -0.49623800       2.03270200       1.47352932      -0.11810585       1.75865485
Si       4.64336000       1.00099000       2.78500000      -0.82361900       2.27383700       0.17243100      -0.73019588       2.20172299       0.32557680
Si       5.30071000       3.73874000       2.23321000      -1.13801900       1.40766600      -1.97244000      -1.28417417       1.18933903      -2.27577695
Si       5.60784000       3.05108000       6.86204000       1.78633600       1.16462800       1.21292600       1.63263424       0.80179605       1.09964510
Si       7.37786000       2.01899000       5.63982000      -1.85188300      -4.99033500       0.63073900      -2.12302780      -5.17369603       0.20509913
Si       7.84836000       3.98525000       7.99758000      -1.73886300       0.76335000       2.02910200      -1.61401473       1.23112118       1.46436465
Si       8.18070000       5.21779000       5.96080000       2.99103300       5.24835700       0.50260400       2.61571554       5.18614715       0.21223271
Si       7.85457000       7.16215000       8.23590000       2.87892000      -0.59652700      -5.12003700       3.11755679      -0.78765778      -5.28346889
54
Lattice="8.579999685 0.0 0.0 0.0 8.579999685 0.0 0.0 0.0 8.5799996" Properties=species:S:1:pos:R:3:REF_forces:R:3:MACE_forces:R:3 config_type=random2 REF_energy=-365.22575864 MACE_energy=-364.4165723195203 pbc="T T T"
Fe       0.20349000       0.43692000       2.30233000      -1.19759000      -0.05132300      -0.31775900      -1.28153768      -0.06269345      -0.35462502
Fe       0.51917000       1.17401000       4.74302000       2.78563200      -1.27976500      -1.64547000       2.67163519      -1.39317946      -1.71932671
Fe       1.38751000       3.23006000       6.69712000      -2.06380500      -0.45204200      -2.64816400      -1.46652057      -0.14552691      -2.69533862
Fe       1.21974000       4.87952000       0.40100000      -2.47724400       1.11533000      -0.99296900      -2.47361422       1.03822758      -0.47615879
Fe       1.97573000       5.54310000       2.88466000       6.09622800      -0.22804000       0.22274800       6.40032960      -0.13646026       0.20547959
Fe       0.24724000       4.67275000       3.31002000       1.25657100      -3.26273900       0.49527800       1.61889160      -3.91144110       0.64548531
Fe       2.05879000       7.00765000       1.04459000      -2.72119300      -0.03775000      -3.04789100      -2.79702139      -0.30910351      -3.15564938
Fe       1.63798000       7.40648000       3.82765000       2.29920100       2.88972100       2.98139100       2.05698405       2.88211182       2.61141919
Fe       1.09226000       7.58547000       7.07334000       0.04029200       2.73525000       0.31147100       0.08028683       2.47665483       0.24558210
Fe       3.60090000       0.57134000       3.89250000       0.69494200       2.40229900      -4.05887500       0.48232126       2.98358307      -4.21596736
Fe       2.65991000       1.09437000       7.86419000      -1.14458000      -0.85522600       2.26630900      -1.02328353      -1.00359292       2.03914888
Fe       2.24446000       3.37294000       4.01156000       1.54847400      -3.07575300       1.59871500       1.36378386      -3.01310070       1.76470411
Fe       2.60814000       3.36778000       8.29224000       2.86850300      -0.48023700       1.04871300       2.87331135      -0.59433400       0.33162418
Fe       3.82657000       5.53146000       0.39663000      -0.49871600      -1.08215200       0.37044000      -0.91407334      -0.90413127       0.41978422
Fe       2.40237000       5.93309000       6.71186000       1.66007800      -1.91531100      -0.54914500       1.56890371      -1.85983729      -0.17417035
Fe       3.83124000       7.22984000       2.26002000       1.16293400      -0.34641600       3.49778100       1.42946206      -0.68087204       3.42220308
Fe       3.99920000       8.45773000       5.51692000       1.28512400      -7.68078000       2.95796600       1.89756942      -7.46986744       3.81956488
Fe       5.22444000       0.95706000       0.14198000      -0.41599900      -1.79364900       3.26990900      -0.42982839      -1.54217216       3.26142744
Fe       5.45558000       1.13972000       6.57432000       2.20837100       0.47887400      -0.56599300       2.27330916       0.28904717      -0.80371009
Fe       5.26466000       2.27135000       4.41008000      -0.17510500       1.86037900      -0.00881300      -0.58762953       1.89166388      -0.09883677
Fe       4.35232000       3.74890000       2.00519000       5.41658000      -2.25214300      -0.60695800       5.40465422      -2.71142761      -0.86634035
Fe       4.94500000       3.07245000       8.16952000       0.69532600       1.35147200      -0.28201500       0.56176866       1.36231671      -0.38314148
Fe       4.72549000       5.27621000       3.27777000       2.48098000       1.19615400       0.41763500       2.60853000       1.87727175       0.43182713
Fe       5.66786000       6.71115000       7.78034000       3.01066600       0.48468200      -0.64974500       2.99278302       0.31718027      -0.26793804