1
config_type=IsolatedAtom Lattice="10.000000000 0.0 0.0 0.0 11.000000000 0.0 0.0 0.0 12.000000000" Properties=species:S:1:pos:R:3:REF_forces:R:3 REF_energy=-0.04878295 pbc="T T T"
Si 0.00000 0.00000 0.00000 0.000000 -0.000000 0.000000
1
config_type=IsolatedAtom Lattice="10.000000000 0.0 0.0 0.0 10.000000000 0.0 0.0 0.0 10.000000000" Properties=species:S:1:pos:R:3:REF_forces:R:3 REF_energy=-2.97727971 pbc="T T T"
Fe 0.00000 0.00000 0.00000 -0.000000 -0.000000 -0.000000
1
config_type=IsolatedAtom Lattice="10.000000000 0.0 0.0 0.0 10.000000000 0.0 0.0 0.0 10.000000000" Properties=species:S:1:pos:R:3:REF_forces:R:3 REF_energy=-0.03182523 pbc="T T T"
B 0.00000 0.00000 0.00000 0.000000 0.000000 -0.000000
54
config_type=Fe34B10Si10 Lattice="8.579999685 0.0 0.0 0.0 8.579999685 0.0 0.0 0.0 8.579999600" Properties=species:S:1:pos:R:3:REF_forces:R:3 REF_energy=-356.69482327 pbc="T T T"
Fe 0.63042 1.20762 2.49681 -0.679897 6.550676 2.089282
Fe 1.68999 3.33491 1.22049 0.432633 -0.165837 -0.442026
Fe 1.21251 3.80449 6.90835 -3.485739 1.843328 2.631864
Fe 0.38414 4.58480 3.31560 -0.287149 -3.720230 0.767967
Fe 1.87485 5.75314 2.54131 3.612266 2.592112 -4.145620
Fe 1.58891 8.41909 1.85016 1.717363 -5.226915 -2.712068
Fe 3.72776 1.26988 2.90604 0.306316 -0.470302 -3.120980
Fe 2.66285 0.97755 5.58556 -3.115316 1.046913 0.089543
Fe 2.70544 2.64034 7.41859 1.336275 -1.895909 -0.424326
Fe 2.57964 5.41487 6.82064 7.624761 -3.017764 -2.262641
Fe 2.63310 6.27189 0.15513 0.078085 -2.480174 2.437798
Fe 4.18563 7.02960 5.46163 -0.483402 1.511261 -1.777630
Fe 2.91644 8.35400 3.69280 -2.270444 -1.805050 4.131942
Fe 2.17829 8.17594 8.19756 0.841422 1.597669 -1.743826
Fe 4.90325 1.16818 5.41621 -2.079315 -2.651501 -2.798250
Fe 4.91622 0.09451 7.73886 -3.271668 1.759237 -1.404544
Fe 5.75195 1.76419 1.01363 2.027456 0.846320 0.119068
Fe 5.90352 1.96284 6.95687 -1.332301 2.960598 5.905525
Fe 4.50562 2.97484 3.03387 3.863244 0.230135 1.718976
Fe 4.63061 4.24480 7.78652 -2.151672 -0.339854 0.957947
Fe 4.49679 4.97468 2.18230 1.775198 2.060258 -3.004743
Fe 4.76650 5.18779 4.62391 1.584657 -0.123738 -1.092255
Fe 4.97622 6.99671 0.26329 0.318896 -3.917635 -0.762191
Fe 6.24871 6.90698 6.45519 0.847496 0.279689 -0.971206
Fe 5.47455 8.20458 2.00793 2.638501 1.748385 0.903214
Fe 6.56700 1.48076 3.12357 -2.558976 3.770707 -0.237822
Fe 6.67895 2.61434 4.95031 1.320494 5.837129 -3.737074
Fe 8.06507 1.52733 7.41230 1.870103 3.352371 -2.594623
Fe 8.07407 3.20034 1.77482 -2.083845 -2.577144 0.556168
Fe 6.68294 4.24542 8.49658 -1.444302 -3.259378 0.017540
Fe 8.33219 5.01575 0.69532 7.032621 -2.140721 -1.254276
Fe 7.84405 5.14325 5.15018 0.804838 -0.370752 2.887242
Fe 7.59347 6.32328 3.47922 -7.415171 0.146018 0.626641
Fe 7.82257 6.94990 8.11922 2.091043 -2.403810 -1.321478
B 0.41825 0.31136 5.77443 7.371082 5.192400 1.040515
B 0.66910 0.64310 8.44064 -0.312865 -0.040753 1.984615
B 0.60252 6.51967 1.23467 3.031566 0.781792 0.146883
B 0.60897 6.71756 3.21079 2.929396 3.615995 0.333659
B 3.42132 8.19550 6.64387 -1.028944 0.359889 0.652045
B 5.54035 6.60512 3.18399 -0.791454 -1.200265 0.474220
B 4.54537 5.84106 6.93769 -0.032551 1.577178 -0.406522
B 6.91811 1.09711 5.69049 3.150006 -5.655023 -0.130286
B 8.26124 7.78945 1.19612 -0.858214 2.806811 0.333080
B 7.83321 8.14140 5.62727 -6.509817 -5.234699 -0.152695
Si 0.87479 2.70123 5.19820 -1.286413 -1.558404 -2.553844
Si 0.94709 6.29336 6.73918 -6.788295 3.534345 -0.467149
Si 3.97660 2.78829 0.62753 -1.400726 -0.424168 2.033322
Si 2.91383 4.22455 3.32851 -2.360893 -1.964946 3.521965
Si 4.11820 3.39113 5.56329 -1.135729 -2.282851 0.938831
Si 3.65141 7.19968 2.14989 -0.716788 -2.266424 -1.707532
Si 6.26853 4.20955 6.42985 0.960398 1.261360 -2.182214
Si 6.88780 0.12851 8.44363 -0.393067 1.569701 1.942047
Si 6.66294 5.79350 1.42500 -4.030241 2.443551 2.624801
Si 7.69229 8.46669 3.02778 0.739076 -4.081584 1.541121
54
config_type=Fe34B10Si10 Lattice="8.579999685 0.0 0.0 0.0 8.579999685 0.0 0.0 0.0 8.579999600" Properties=species:S:1:pos:R:3:REF_forces:R:3 REF_energy=-356.35511839 pbc="T T T"
Fe 2.03776 1.25366 5.49679 0.734953 0.956664 -1.011243
Fe 0.79456 1.64944 3.12031 3.336523 0.949020 0.167499
Fe 1.84501 3.38723 1.08017 -9.735422 4.855974 2.323594
Fe 0.44523 4.08670 3.23628 0.041510 1.840229 -2.375140
Fe 1.15562 3.29614 7.44197 0.625922 0.110272 -0.484309
Fe 0.40495 5.15172 0.11640 -5.282315 -8.035247 1.474734
Fe 2.01119 8.19841 1.62165 -7.809848 2.722052 -0.664379
Fe 3.94107 1.01549 2.26933 -1.463410 1.293544 1.912488
Fe 3.68144 1.89776 7.28924 -6.599591 2.630130 1.080184
Fe 2.86110 4.81105 6.32792 -1.856740 -0.346661 -0.037032
Fe 2.28141 5.92751 0.49550 1.948792 -0.333179 -0.017014
Fe 2.37893 6.11829 2.61188 -2.638805 -2.606684 3.448527
Fe 4.25446 6.29058 8.55764 3.050559 4.488173 -4.250237
Fe 2.98266 8.01419 4.04644 3.397707 2.373075 -1.157881
Fe 4.28437 7.58361 5.49187 -4.098303 -8.057429 1.262938
Fe 2.72798 8.33592 7.93996 1.813535 -1.674677 3.689160
Fe 5.84021 1.16948 3.71793 6.523845 1.579087 -3.200237
Fe 4.35505 1.01864 4.79107 -4.276521 7.152967 0.257725
Fe 5.78004 1.72395 1.29004 -3.853149 4.817575 2.745204
Fe 5.43159 2.27391 7.38470 6.126005 0.556360 0.265859
Fe 4.76333 3.31404 3.24405 0.136477 -2.020406 -1.601929
Fe 4.30459 4.38670 0.18793 1.555897 -3.298942 -2.516123
Fe 4.53694 5.45430 2.07903 1.324141 -0.558642 1.671971
Fe 4.76002 5.14155 4.34333 0.369074 2.773167 1.821678
Fe 5.98700 6.87720 6.59418 0.486725 -0.300608 2.201214
Fe 5.81236 8.12437 2.10469 1.752648 3.198918 -0.803278
Fe 5.19909 8.45787 8.04804 -0.849956 0.073029 0.386518
Fe 7.97897 2.81698 1.04679 1.725956 -0.683186 1.509416
Fe 8.33580 1.75669 6.76991 -0.914345 -1.138242 0.104153
Fe 6.45960 2.89869 5.28338 1.921173 -0.652092 -0.620608
Fe 6.83164 3.89003 8.14039 0.004122 1.025170 0.157834
Fe 6.89599 6.33037 3.09850 1.369410 -1.098562 3.242172
Fe 8.09068 5.74709 5.58120 1.044592 -0.905621 -0.599281
Fe 7.68226 7.08818 7.66633 -0.696064 1.627759 2.250357
B 0.53432 6.69885 0.82822 -0.669617 5.131709 2.555274
B 1.47550 7.60269 3.70633 -7.576852 -1.064185 -1.443895
B 1.64969 8.55634 6.66815 -4.056184 -0.940043 -1.690076
B 3.92714 0.37172 6.43618 -1.250273 0.412952 3.281717
B 4.28915 5.93771 6.42514 0.650658 -1.073777 1.145320
B 5.09047 7.88217 3.81523 0.349799 -1.699607 -1.506691
B 5.77758 8.44931 5.28074 4.926146 1.224375 1.228105
B 8.44468 0.96875 1.81187 -1.941073 -0.229418 -5.751831
B 6.74449 7.06048 4.95774 0.886743 0.325935 -2.081855
B 7.79973 7.81556 0.97126 2.806187 1.882748 2.212120
Si 0.64575 2.83723 4.87232 -1.488631 1.035229 3.825763
Si 1.02510 6.39013 7.29236 4.182359 2.587165 -5.387241
Si 3.46426 2.68672 0.92511 8.918781 -7.192165 0.135128
Si 2.71440 4.02474 3.99805 -1.651107 0.825400 -1.477145
Si 4.25193 3.23369 5.53992 -0.591035 -0.587828 0.386503
Si 3.77527 7.53263 1.80140 5.040725 -1.759188 -0.751114
Si 6.13470 4.81160 6.24725 -0.224816 -0.911188 0.035984
Si 6.41096 6.50972 1.07421 -0.853570 -5.559774 -5.682730
Si 7.04672 0.89465 0.12782 5.257951 -1.779747 -4.286067
Si 8.15410 8.53458 3.34455 -1.931288 -3.941576 2.618195
54
config_type=Fe34B10Si10 Lattice="8.579999685 0.0 0.0 0.0 8.579999685 0.0 0.0 0.0 8.579999600" Properties=species:S:1:pos:R:3:REF_forces:R:3 REF_energy=-351.89510477 pbc="T T T"
Fe 1.47099 0.07299 1.81731 3.907402 -0.225233 -1.412522
Fe 1.60856 1.39313 5.36700 0.913970 -1.683705 4.612600
Fe 1.49501 1.98674 3.46494 -2.512521 2.624378 -5.389715
Fe 1.23461 2.78254 7.79393 1.947088 -0.529130 -1.661814
Fe 1.55145 3.76834 1.42445 3.096769 -1.231913 -1.903759
Fe 0.21991 3.89656 2.77866 -3.989438 0.263980 2.730782
Fe 0.18203 4.78658 8.25015 4.597226 3.673537 1.247920
Fe 0.05150 5.89686 6.16516 2.011129 0.257215 -0.610110
Fe 3.78129 0.75622 2.01789 2.112012 -1.520310 3.421210
Fe 3.45494 1.50806 4.18404 3.290816 -0.275981 0.342901
Fe 3.36709 1.93004 7.64543 2.617415 -0.713104 -13.371630
Fe 4.15539 3.89906 0.73001 1.216945 2.445358 -1.038391
Fe 2.63161 4.04444 6.34001 -0.335246 1.118208 -0.408361
Fe 2.23132 5.62990 0.66145 -0.146839 1.995324 -0.750912
Fe 2.64668 6.04696 2.86835 -1.021918 -3.792066 -0.798409
Fe 4.05741 6.29622 7.97913 -0.117818 -5.475141 -0.054291
Fe 2.82527 7.57575 3.95212 -0.178453 2.213813 1.383872
Fe 4.09197 7.43482 5.73848 -3.776582 3.289527 -1.956666
Fe 3.34283 8.22833 7.84593 -0.462060 7.268254 1.548651
Fe 5.77036 2.23092 1.60080 -0.691746 -0.464025 -2.151288
Fe 5.75330 2.40448 7.80976 -1.102750 -1.213110 0.011476
Fe 5.04641 3.33434 3.30262 -0.992994 1.422591 0.509739
Fe 4.78418 5.52253 4.69069 -1.497625 -1.312226 -0.959100
Fe 4.63589 5.77836 2.04829 -0.845143 -3.729581 -0.442971
Fe 6.32754 5.76811 3.01919 3.704211 -0.446045 1.952180
Fe 5.65207 6.77850 6.68229 4.326652 1.299966 -0.702310
Fe 5.59427 8.29560 8.54165 1.638610 2.008589 -2.059646
Fe 8.18042 2.50619 0.46289 -1.812543 -1.226685 3.495600
Fe 6.52005 1.44384 3.98498 -7.921169 5.132384 4.314725
Fe 8.36432 1.59976 6.31751 -1.117000 2.524897 -3.391898
Fe 6.53213 3.21972 5.33369 -2.431972 -3.638420 -1.242462
Fe 7.13049 4.02553 7.76922 -1.751220 -4.437874 -1.924217
Fe 6.48581 7.87783 1.94366 -0.883806 1.008963 1.305173
Fe 7.83651 7.53153 7.63466 -4.831631 -11.393366 1.248484
B 1.41298 0.18926 3.75657 -1.480702 -2.390387 0.514768
B 0.54036 7.70122 0.30324 1.642564 -0.083781 2.190965
B 0.42279 8.51845 7.18045 7.863318 3.873043 -2.788410
B 2.70956 5.73716 5.06426 -0.124269 0.211960 0.128401
B 5.07170 0.79074 6.43757 -3.037042 1.012029 0.965926
B 4.52618 8.16384 3.25113 2.329415 -1.250088 2.265835
B 5.79361 7.47212 4.67544 0.321552 -0.308851 -1.448200
B 6.44786 0.01252 6.38796 -0.699831 -2.382302 -4.200622
B 7.19303 1.47946 2.50255 4.967604 -1.133430 -5.062528
B 8.34499 8.50012 1.77825 -2.891827 0.066934 -0.009455
Si 3.14949 2.06358 0.78663 -5.256867 2.813288 8.385930
Si 2.40257 3.89167 3.88061 1.247667 2.027946 0.888367
Si 2.18395 7.00804 6.86959 -5.129085 -4.133417 -2.796597
Si 4.16264 7.47906 1.12984 -3.252693 0.664447 3.128557
Si 4.59062 2.84721 5.74888 -3.276980 0.008292 0.856957
Si 6.30447 5.71358 8.45862 -1.476350 2.256672 3.906556
Si 7.33675 0.76348 7.75218 -1.616208 7.226147 7.508336
Si 8.36779 3.72434 5.18434 6.634575 1.177530 -0.211995
Si 6.52622 5.08482 5.98870 0.373556 1.714612 -0.909085
Si 7.52116 8.49967 4.28499 5.901834 -6.609715 0.791454
54
config_type=Fe34B10Si10 Lattice="8.579999685 0.0 0.0 0.0 8.579999685 0.0 0.0 0.0 8.579999600" Properties=species:S:1:pos:R:3:REF_forces:R:3 REF_energy=-356.90017668 pbc="T T T"
Fe 1.55637 0.45028 2.14507 -2.517591 -6.353480 0.469731
Fe 2.01604 1.28176 5.84342 -1.399001 -1.085872 -3.767383
Fe 1.31511 2.32676 2.78106 -4.756172 1.215680 6.146172
Fe 1.25163 2.09200 7.80376 -2.557461 2.214227 -0.861960
Fe 1.60959 3.99443 1.51596 -0.935661 0.437995 -0.838763
Fe 2.06507 3.69794 6.36324 0.882753 0.821197 0.178474
Fe 0.44646 5.20040 8.33847 -3.673789 -2.635719 2.507749
Fe 0.80728 5.92672 6.49566 -5.795380 -3.036868 -2.036984
Fe 4.10415 0.28962 2.29851 0.744602 1.369944 -0.129715
Fe 3.62462 0.27359 7.94247 3.713399 -1.450526 1.715538
Fe 3.54629 1.95867 3.85063 -1.194719 -2.674443 -1.344550
Fe 3.40535 2.05052 7.28783 0.884811 3.846631 3.060841
Fe 4.10653 3.66106 0.94953 -5.086169 -2.649501 1.403134
Fe 2.74376 5.49536 2.57332 -0.152544 4.309776 0.727307
Fe 3.92169 5.51762 7.63528 -1.498791 0.672158 -1.750431
Fe 2.18112 5.96636 0.44077 1.000192 -3.211125 -0.954998
Fe 2.55189 7.76620 3.89317 0.010304 -0.563043 -0.065651
Fe 3.82695 8.18840 5.81700 2.112598 1.460366 -3.908579
Fe 5.78065 2.32827 1.53024 0.984281 -1.371393 1.267343
Fe 5.67698 2.18725 7.92206 0.313942 0.713098 -1.713736
Fe 5.04078 3.52864 3.49080 -1.008878 2.095181 -1.027744
Fe 6.31245 3.55644 5.32586 1.450507 0.609020 -2.292618
Fe 4.73355 5.70467 1.79842 -0.008692 3.527434 4.243546
Fe 4.30289 5.72589 5.11963 0.028127 0.068959 -0.840724
Fe 5.88452 6.76288 6.89182 -0.801785 -1.525292 0.256774
Fe 5.74757 8.41285 0.20383 -1.336847 -2.071232 2.536010
Fe 7.66692 1.33665 5.96752 5.162671 3.579317 1.501594
Fe 8.37157 2.34545 0.65687 1.315760 5.352553 3.554345
Fe 6.44282 1.60714 4.10127 4.545121 5.612560 -1.613944
Fe 7.76235 3.72780 2.73645 1.814339 -2.981585 -0.416100
Fe 7.06109 4.10340 6.99148 1.725060 1.639129 3.410578
Fe 6.71418 5.16271 3.43064 -3.121778 0.703513 -5.704148
Fe 6.66529 8.00187 2.33596 0.161070 0.432720 0.183382
Fe 7.89947 7.30608 7.58665 -0.883256 0.108842 0.311691
B 0.85803 0.19347 4.07161 0.955284 2.082130 -0.347861
B 1.91163 0.41092 7.77256 -3.807208 -1.522623 -0.262446
B 1.50305 6.14786 4.66016 1.529038 -0.497141 -2.048945
B 0.49122 8.49520 0.04319 1.079756 1.883083 1.499530
B 1.38709 7.36496 7.99075 -0.618475 -0.753014 0.961157
B 5.49778 0.35044 3.72302 -4.477708 -5.667474 0.228499
B 5.59975 7.59404 5.01443 -1.376014 -2.221947 -0.890388
B 5.20796 8.56499 6.97594 2.477316 1.671624 -0.449832
B 6.45477 0.26237 5.60835 -3.301280 -3.097274 -0.539209
B 7.54475 1.55129 2.20117 0.539188 -0.484770 1.487785
Si 0.50169 4.30853 4.96172 -2.830672 -1.084734 -1.441999
Si 2.37331 1.93941 1.13809 5.804953 1.641122 -5.251345
Si 2.49240 3.96254 3.84833 1.094234 -2.026394 2.241733
Si 2.26817 7.04763 6.29794 5.187625 2.438804 -1.342216
Si 3.35990 7.48341 0.92221 1.232279 -0.196505 2.211235
Si 4.65255 2.27337 5.63544 0.467006 0.184776 -0.066835
Si 5.51199 4.84235 0.24266 8.264577 -0.729233 -4.990986
Si 7.49152 0.91058 8.34066 -2.659716 -2.695318 -2.668733
Si 7.03435 5.88778 5.13468 -1.627364 -1.452568 7.364486
Si 8.18541 7.52723 4.74607 1.946157 3.347231 0.100186
54
config_type=Fe34B10Si10 Lattice="8.579999685 0.0 0.0 0.0 8.579999685 0.0 0.0 0.0 8.579999600" Properties=species:S:1:pos:R:3:REF_forces:R:3 REF_energy=-357.87599347 pbc="T T T"
Fe 1.77178 1.40526 4.36060 5.595296 2.442373 0.423530
Fe 0.96383 2.84632 2.17968 0.290901 0.593626 0.536266
Fe 0.13432 3.41532 5.29569 -1.446968 -2.253031 2.550195
Fe 0.93013 4.58866 3.80466 -3.888063 1.596850 -2.724522
Fe 2.12660 5.84232 6.78995 0.296838 0.799024 -1.089688
Fe 1.66477 8.14471 0.56473 0.870339 6.915544 -0.812180
Fe 0.85274 7.87655 4.51769 -0.530666 -2.633095 -0.386978
Fe 3.10930 2.56407 1.64857 -1.308415 1.241956 -1.468729
Fe 2.17504 1.83814 8.31817 -4.891157 -1.321089 2.316846
Fe 2.84275 3.55453 5.75220 -3.112150 -5.105249 -1.775503
Fe 3.48078 2.95132 7.41180 3.430633 2.799170 2.768884
Fe 4.16086 6.23527 4.24675 1.045123 -1.091547 0.260649
Fe 3.97228 6.96750 7.81235 -2.226737 -0.199481 1.380210
Fe 3.70211 7.71819 1.32116 1.028964 0.593175 -0.729491
Fe 3.71301 8.10310 5.53926 2.073267 -4.459362 -8.585363
Fe 5.62050 0.86363 4.54409 1.328582 -0.022693 -1.254374
Fe 5.79610 0.37420 6.63208 -2.421173 1.426282 2.774820
Fe 4.47026 1.76912 2.83992 2.352239 -2.242663 0.200235
Fe 4.62593 1.50642 8.36462 2.038769 -1.313429 1.996402
Fe 4.43017 3.98712 3.42629 -4.566511 -1.862386 1.125518
Fe 6.13657 5.63816 2.12156 0.357417 0.505322 -0.859739
Fe 4.33547 4.83042 6.20005 2.236380 2.082846 -0.038540
Fe 5.65879 7.59203 2.57608 0.047625 3.590619 1.117504
Fe 6.91410 0.96905 0.92225 -2.627695 -0.612576 -0.671024
Fe 8.54807 0.93631 4.06213 -7.107670 3.227981 -0.005558
Fe 8.08676 1.08366 7.71260 2.468581 1.065228 0.288709
Fe 6.98832 2.85015 3.49961 -0.274599 0.272236 -0.552065
Fe 6.73573 3.03433 0.59744 -2.151055 -0.569132 -1.872417
Fe 7.95474 4.39092 1.44390 1.475573 2.222119 0.429104
Fe 7.05094 6.53109 4.29112 1.282084 1.019555 -2.227184
Fe 8.07954 6.05862 8.21126 -2.512642 -1.470161 -2.535188
Fe 8.23725 7.28141 1.90231 -0.750201 -1.841852 0.811772
Fe 7.61651 7.93497 5.92643 -0.719953 1.594333 0.780780
Fe 6.76167 7.79393 8.26855 -1.336646 -1.800289 1.519646
B 1.24888 5.11804 1.94178 -4.230588 -1.683830 -1.502582
B 4.06358 4.12658 0.94695 0.955605 0.071847 0.666477
B 2.37445 4.75600 4.64897 4.112823 5.001524 -0.231490
B 2.16734 6.80154 4.80487 2.484231 -4.554404 2.805876
B 5.54361 3.91402 2.06336 1.307661 -3.485640 -2.788861
B 5.45313 6.65373 6.88641 -0.613003 3.666020 -0.338618
B 5.59784 7.41758 5.38531 0.206581 0.040425 -2.195339
B 6.67903 0.95023 2.66842 -0.508791 -0.434291 3.295809
B 7.55282 1.28554 5.93728 0.062191 0.879187 -2.945708
B 7.83241 3.84991 7.51944 0.138132 -0.136728 0.843904
Si 0.23628 0.80871 1.89602 1.381174 0.350815 -0.903744
Si 1.65090 4.38955 8.35051 -0.034878 -6.471034 -0.567121
Si 1.31174 6.30503 0.42030 2.411741 -0.589400 1.631154
Si 0.03583 6.16396 5.95131 2.198449 -3.361706 -0.650892
Si 3.10335 0.41276 6.95968 -3.864767 4.783406 7.481621
Si 2.89783 5.33810 2.50740 4.330417 -0.416076 -0.045554
Si 2.86842 7.55500 3.26492 -1.010666 4.752810 -1.546664
Si 6.20748 2.70833 6.43006 -0.694787 0.824823 0.877333
Si 5.97257 4.76169 4.44453 2.179910 -0.952441 1.809956
Si 6.39594 5.16622 6.92886 2.842252 -3.475512 0.611917
54
config_type=Fe34B10Si10 Lattice="8.579999685 0.0 0.0 0.0 8.579999685 0.0 0.0 0.0 8.579999600" Properties=species:S:1:pos:R:3:REF_forces:R:3 REF_energy=-353.72261577 pbc="T T T"
Fe 1.84542 0.12946 0.34954 -0.456506 -6.188596 4.450520
Fe 0.29886 2.54609 1.69750 1.925788 5.326382 0.428106
Fe 1.70827 1.91307 8.35990 -2.257082 0.067250 1.622256
Fe 0.22460 3.73955 6.31597 -0.859718 -6.076503 -2.679112
Fe 0.56778 4.97009 3.36255 2.237428 -0.555419 1.690419
Fe 2.04010 5.48893 7.06839 3.310218 1.063419 -2.168442
Fe 1.21749 6.87968 4.99927 1.989851 1.187361 -2.478850
Fe 0.43387 7.77450 1.79440 0.262077 -2.347620 1.261151
Fe 2.29331 2.75404 2.04053 3.033802 -4.323608 0.249144
Fe 2.21517 2.08100 4.01324 -0.834974 -2.312710 -1.596601
Fe 2.56350 2.70587 5.76644 0.773150 2.600868 3.362749
Fe 4.21075 6.62729 3.98338 -4.742316 -5.227089 -3.864211
Fe 4.05395 7.94321 0.96439 -2.609146 -4.222598 3.318547
Fe 4.04065 7.65795 7.48248 -1.446296 -3.820625 0.773744
Fe 5.99580 1.11490 0.63730 4.091609 0.537873 -5.259534
Fe 4.35081 1.07076 0.11189 -8.057084 4.281219 -3.468415
Fe 6.26637 0.65974 4.37929 -3.037500 1.256020 -1.440631
Fe 5.62904 0.51490 6.81168 1.351863 0.059865 -1.168658
Fe 4.67938 1.97085 2.44639 -3.556046 0.326235 1.576329
Fe 4.35417 3.65065 3.92755 -0.481061 0.904536 0.534272
Fe 4.32054 3.50772 8.00098 -2.419703 0.920519 -0.877824
Fe 6.07935 5.22499 2.41720 -3.051775 -0.943709 -1.833772
Fe 4.56491 5.12830 6.08843 -1.112640 -0.922462 -1.242273
Fe 5.42646 7.90924 2.42455 1.331801 -2.340368 0.323004
Fe 4.29915 7.96299 5.48120 -1.980950 5.690798 -0.483515
Fe 8.30600 1.01564 4.31764 3.697387 0.579631 -1.047314
Fe 7.80419 1.06405 7.58696 2.083702 0.128653 0.189567
Fe 6.61752 3.37034 0.06495 8.593387 5.896653 4.240507
Fe 6.93745 2.87393 3.41780 0.667837 -2.451509 -3.668537
Fe 8.00465 5.66694 0.08684 0.755186 1.581814 -2.299677
Fe 8.02103 4.48871 1.62413 0.521035 -0.395075 1.986984
Fe 7.23058 6.01616 3.92581 1.549495 2.021142 0.808132
Fe 7.54718 7.71393 5.56146 2.611424 1.140292 0.735033
Fe 6.71723 7.45971 8.29731 -0.451136 0.554872 -0.151350
B 2.06627 4.33011 1.56345 -2.529758 3.421180 -2.764879
B 3.93825 3.66188 1.32937 -1.594450 0.275888 2.021658
B 2.62592 4.80078 4.95883 0.532897 0.685659 0.142659
B 3.27397 6.47049 5.81229 -3.379784 -1.271919 0.173944
B 6.17092 0.97965 2.26290 2.267588 0.327877 8.212580
B 5.44428 3.13917 1.14665 -3.736029 -0.504993 4.549807
B 6.00424 7.01454 6.08117 -2.997728 -1.304616 1.696693
B 5.64578 7.44900 4.34809 6.434246 0.299109 0.194543
B 7.15927 1.75334 5.76870 0.847852 -0.326870 -1.155712
B 8.42102 3.73174 8.09955 -3.812129 -1.427716 2.155426
Si 1.60819 3.73726 8.05389 5.476093 5.804124 0.112789
Si 0.13774 5.67981 6.33896 -3.646499 4.946603 -0.663027
Si 1.85126 6.10038 0.51572 -0.235795 1.757259 1.170775
Si 2.60821 0.72575 7.06144 2.533708 -1.482094 -6.476273
Si 3.05414 5.30228 2.70829 1.453720 1.280987 1.908227
Si 2.65489 8.50299 2.92626 0.102350 -0.055035 0.267055
Si 6.10976 2.62175 7.11175 -3.177651 -3.795661 -8.398193
Si 6.39573 4.98839 6.99903 2.145242 1.377913 3.164689
Si 7.86795 1.00051 1.40534 1.158470 -5.652851 -0.567964
Si 6.51334 4.15517 4.85889 -1.275447 1.647647 2.433458
54
config_type=Fe34B10Si10 Lattice="8.579999685 0.0 0.0 0.0 8.579999685 0.0 0.0 0.0 8.579999600" Properties=species:S:1:pos:R:3:REF_forces:R:3 REF_energy=-361.53601897 pbc="T T T"
Fe 2.04248 0.04905 0.52996 -1.861960 0.944138 -0.537605
Fe 0.23093 1.20526 3.93843 0.001938 0.047029 0.056273
Fe 1.81184 2.53837 1.70860 0.686009 0.788421 1.582749
Fe 0.90348 2.01370 8.18713 2.022140 0.829701 1.788874
Fe 1.18988 5.04471 3.20161 -6.266659 -1.373456 -1.280105
Fe 1.91021 6.06292 4.78364 -0.103297 3.732796 2.419861
Fe 0.79732 7.62680 2.09047 -0.892252 -0.670406 1.600592
Fe 2.49129 2.46287 3.99899 -0.523735 -1.510536 -0.204245
Fe 2.32208 2.69695 6.45352 0.456924 0.304060 -1.273529
Fe 3.04239 1.78467 8.42154 5.302278 -1.188451 -0.680123
Fe 2.54291 5.47348 6.84598 -0.915283 -0.791088 0.691654
Fe 4.04545 7.67067 1.21192 7.405822 6.472910 1.465005
Fe 3.85807 7.45725 7.31846 0.883162 0.482261 2.584675
Fe 6.16044 0.66604 4.69541 3.157007 2.455111 -3.136480
Fe 5.82863 0.47654 6.97059 -1.581629 1.892257 0.175200
Fe 5.67987 1.47194 0.32681 0.493548 -0.611658 -0.157443
Fe 4.41841 1.54428 2.38383 -0.800886 -2.119070 1.779477
Fe 4.66023 4.11184 0.35512 -1.895535 -0.295138 -1.730349
Fe 4.40500 3.44491 4.35470 3.446890 -2.398964 1.333291
Fe 5.33077 4.73455 2.55232 3.502524 3.258964 0.748084
Fe 4.69327 5.31473 5.86065 1.259034 -0.871927 0.530686
Fe 4.46050 6.82267 3.31571 -1.656916 -1.579009 2.165757
Fe 5.82993 8.11856 2.43487 2.515970 -0.390381 -0.046894
Fe 4.35102 8.46735 4.98471 -1.649507 1.488630 -2.192291
Fe 6.34782 7.29466 8.36359 -2.297611 7.706889 0.372844
Fe 8.02981 1.22873 7.35815 -3.585163 -2.574405 -1.527373
Fe 8.21256 2.13522 1.50977 2.652668 -1.640156 -3.187965
Fe 6.81291 3.73064 0.28541 -2.251901 -1.692474 -0.907920
Fe 7.05817 2.95120 2.82887 -3.172647 -0.987228 6.527678
Fe 8.40377 3.35404 6.79609 -0.228198 2.554436 -3.335602
Fe 7.83336 4.59094 2.01267 2.474345 1.477262 -4.331561
Fe 7.54727 5.54453 3.61549 -0.380560 1.901130 3.578903
Fe 8.49115 5.53884 8.42470 -0.238209 11.459812 -1.691525
Fe 7.57362 8.01055 5.86097 4.328516 1.026087 0.115284
B 1.77748 3.85866 4.99718 -0.940296 2.512935 0.706104
B 0.00479 4.03100 8.57257 3.420665 -10.454945 2.435014
B 4.01194 3.63918 2.23002 -2.334734 -4.497464 -1.266773
B 2.25817 4.68614 1.74487 0.336373 -0.531967 -2.829936
B 3.74089 6.89005 5.59032 -1.708692 -1.743191 -2.005598
B 5.52019 2.73235 1.76177 0.877887 4.208968 -1.423490
B 5.90442 7.32697 6.11479 -3.313350 -2.257966 0.470340
B 7.16907 0.87807 2.38934 -0.237666 -0.022908 1.754792
B 7.48939 2.05682 5.52144 -0.450516 -0.222606 -0.204834
B 6.65571 6.91568 4.55888 -1.922409 0.827685 -0.554013
Si 2.60896 0.57813 2.88174 -2.181953 -3.261393 0.090463
Si 2.58736 0.28102 6.09470 -2.162553 1.519903 1.163453
Si 2.31963 3.81966 8.48947 -0.756020 2.841551 -0.732881
Si 3.08922 4.74685 3.46164 4.289487 2.287053 2.204323
Si 2.66902 6.61087 0.74574 -7.171237 -9.193597 -2.640262
Si 5.00184 2.72486 6.47055 -0.832943 -0.845255 1.529600
Si 5.98928 5.67540 7.81568 -2.418594 -10.992688 -3.744220
Si 6.61837 4.09044 5.17872 0.896516 -0.065715 -0.458971
Si 8.24456 5.95437 6.13478 1.387160 -1.504717 -0.633390
Si 7.59962 8.36621 0.70288 4.936047 3.268768 2.844402
54
config_type=Fe34B10Si10 Lattice="8.579999685 0.0 0.0 0.0 8.579999685 0.0 0.0 0.0 8.579999600" Properties=species:S:1:pos:R:3:REF_forces:R:3 REF_energy=-358.43563679 pbc="T T T"
Fe 1.66031 2.22790 1.62122 -0.514800 -0.242626 -0.447160
Fe 0.69981 1.64763 3.59771 -2.285438 0.256689 -1.014089
Fe 0.67910 1.96426 8.07719 1.846466 1.208630 0.147161
Fe 2.10005 3.41889 6.47344 -2.780812 -0.120397 -0.499529
Fe 1.44463 4.46033 2.68884 -0.358403 -0.373129 1.452879
Fe 0.84938 7.02742 2.63855 0.160935 -4.373493 -2.059416
Fe 2.02371 6.03240 4.57235 -2.248492 0.993235 -1.384932
Fe 0.72634 6.44750 7.88320 -6.024550 -1.711265 -6.072350
Fe 1.80809 8.34787 0.70509 3.495892 2.255800 -1.246372
Fe 4.26138 0.98928 2.51167 0.403896 4.635121 -4.645327
Fe 4.03424 0.59515 4.22594 -1.404218 -2.535927 6.619808
Fe 2.61615 2.47046 4.48251 -0.176550 -0.518686 -0.783589
Fe 3.24233 1.96382 8.25381 -3.487595 -2.628323 5.410505
Fe 2.91105 5.42578 6.67242 -3.905271 -0.491655 -2.088991
Fe 3.73164 7.31452 7.59849 -0.284445 4.383481 0.091835
Fe 6.37359 1.08328 4.54231 5.089184 -6.151213 0.596712
Fe 5.50821 0.65357 6.89013 -2.582115 -1.410032 -3.042125
Fe 5.47595 1.68383 0.20703 -0.069777 -0.408538 2.125860
Fe 5.25027 2.52866 4.50513 -10.106747 2.540242 2.579509
Fe 4.31448 4.73322 0.99908 -0.305505 -0.955955 3.174135
Fe 5.08637 4.95913 3.10857 5.249450 -1.846362 -1.278933
Fe 5.04016 5.10881 5.53183 8.714412 3.695008 6.035102
Fe 4.62583 6.90315 3.46483 -2.078258 1.127899 -4.192958
Fe 4.57379 7.95178 1.37017 -1.523145 -1.414757 -0.798557
Fe 5.92725 7.59991 8.37797 2.502601 -0.861301 -0.459996
Fe 7.74374 1.26035 1.12419 0.506370 0.588545 0.742886
Fe 7.50788 1.18492 7.19222 -0.273795 0.850008 0.028159
Fe 6.79102 3.50953 0.32298 -3.960571 0.482013 -1.477677
Fe 6.68398 2.95133 3.28744 7.210662 -0.746356 -7.634524
Fe 8.07218 3.50470 6.31081 2.332015 -0.975960 3.253476
Fe 8.01899 4.84918 1.74003 -1.419222 4.563873 1.937032
Fe 7.59859 5.84818 4.03245 -0.051587 1.474920 -2.876432
Fe 6.76806 8.13942 2.53858 -0.245466 -0.585848 0.273900
Fe 8.11163 8.14735 5.90391 0.401478 -1.033608 -1.348124
B 0.57845 4.49548 4.97108 1.635048 -1.323371 -1.707195
B 0.06509 8.35194 3.44535 -1.544523 2.019800 2.096235
B 3.03235 3.26613 2.41951 2.780665 0.526138 0.280173
B 3.33290 5.34078 2.77582 -3.051235 0.699529 -1.352195
B 3.82628 6.69901 5.21910 -3.689808 1.347091 -1.079520
B 5.14462 3.18422 2.31797 -2.282842 -1.269000 -2.595116
B 4.92762 6.85129 6.23400 4.161102 1.998120 5.146358
B 5.64077 7.30584 4.81595 2.735122 1.626636 2.190226
B 8.27897 2.31364 4.87053 -1.612459 1.052685 2.456007
B 8.48249 3.47692 0.77447 5.133782 -3.910370 -0.629636
Si 2.06675 0.19598 2.84656 2.520123 -0.435925 0.648911
Si 1.80503 0.14790 5.67674 0.267438 0.508219 0.047138
Si 4.07946 2.56543 6.67634 4.401847 1.390976 -6.152829
Si 2.36817 4.12934 0.17473 -1.561842 -4.833598 -0.278260
Si 3.66465 4.56425 4.58213 -10.523054 -5.692387 -3.913752
Si 2.34260 6.21695 0.14405 6.438105 1.521552 6.222326
Si 4.65824 5.14970 7.63131 4.866914 0.112669 0.347141
Si 6.61554 4.03659 4.93655 3.086218 1.647914 1.787005
Si 8.08520 5.70180 6.03405 0.165913 2.016561 3.590560
Si 8.48380 7.68602 0.61175 -5.753109 1.326731 1.778546
54
config_type=Fe34B10Si10 Lattice="8.579999685 0.0 0.0 0.0 8.579999685 0.0 0.0 0.0 8.579999600" Properties=species:S:1:pos:R:3:REF_forces:R:3 REF_energy=-355.51145960 pbc="T T T"
Fe 0.70222 1.99303 3.46061 -0.842082 -3.386086 1.854089
Fe 0.82235 1.86056 7.79485 -1.118830 -2.493366 -1.240219
Fe 1.22567 3.75698 2.33609 1.605852 0.563238 -1.162423
Fe 1.06644 4.29988 5.87218 2.809563 0.464456 -1.409520
Fe 0.79825 5.86071 2.68166 2.932170 8.728876 -7.470297
Fe 1.79092 6.49452 4.86277 1.616190 2.472087 -0.795680
Fe 1.85177 8.46166 0.63783 -3.927669 -2.598975 -0.230116
Fe 1.34855 7.16838 6.95848 1.111076 0.205022 4.038128
Fe 3.41633 1.10925 0.21973 0.354571 2.691505 -4.406328
Fe 3.32748 0.40674 4.75122 3.677644 -0.997814 -1.202138
Fe 2.22051 1.63398 1.86824 -0.727256 2.108826 1.413318
Fe 2.59719 2.59461 4.55626 -0.722755 -0.218774 -0.712965
Fe 4.03775 5.16198 1.69348 4.317324 -3.664766 -1.780657
Fe 2.89415 5.67896 6.74004 2.286393 -0.330984 2.764034
Fe 4.24940 7.07381 3.50397 8.755189 3.703126 6.306008
Fe 3.43971 7.84731 7.67974 0.821180 -1.216554 -0.548303
Fe 4.41444 1.31365 2.09677 -0.092662 0.784186 5.413609
Fe 4.66533 0.49637 6.32447 3.764437 0.161855 1.944701
Fe 5.41685 1.77121 0.41972 0.394563 0.318392 -0.345554
Fe 4.95101 2.12361 4.64271 2.442471 -0.193651 -4.014947
Fe 6.10872 4.77618 3.33858 -1.441836 2.137323 -4.210387
Fe 5.50018 5.51945 5.64420 -1.105028 -3.868238 -3.484813
Fe 4.60426 7.79046 1.23570 0.882612 -0.301718 0.400174
Fe 6.18719 7.89647 8.27080 -0.438439 -1.527728 -1.846550
Fe 7.35291 0.69888 0.85631 1.970135 2.993644 0.450350
Fe 7.51395 0.71104 4.34734 -0.693497 0.567308 1.815051
Fe 7.14350 2.69528 2.74492 -9.060619 2.572311 4.921371
Fe 6.77608 1.52957 7.35103 1.521475 -0.135876 -2.905198
Fe 6.46011 3.46653 0.12626 3.839543 0.008087 2.573486
Fe 8.06106 3.57626 6.60862 -2.536525 -1.328228 2.972176
Fe 7.82881 5.48687 1.54383 -4.702344 -6.482798 0.107116
Fe 7.57449 6.50574 4.18100 -0.138154 -2.144407 0.810741
Fe 7.46705 7.93448 2.63341 -2.043456 0.794792 1.385958
Fe 8.43410 7.57137 5.91989 -2.193870 3.768204 -1.335634
B 0.05924 3.77979 3.85861 -1.818832 -0.493510 1.337838
B 0.91121 5.13168 4.04262 0.481087 -5.376772 8.361436
B 0.78410 8.02534 3.59907 -9.555237 -0.795553 3.142813
B 4.06376 4.89407 3.44533 1.599312 0.090785 -1.008045
B 3.09444 6.38561 2.73058 -7.255898 -6.486391 -3.088848
B 4.07728 7.26098 5.87624 -0.064645 -1.745571 -2.134022
B 4.54021 3.43227 2.28285 1.010978 -1.959024 0.693619
B 5.90689 7.14225 4.99621 -0.024909 3.155738 -0.230203
B 5.27431 6.50510 7.00797 -0.772905 3.421813 3.822641
B 8.29232 2.25928 1.83497 7.991102 -2.288413 -7.967230
Si 1.40256 0.70576 5.17355 -3.972768 0.306872 2.951540
Si 1.58922 3.50372 0.23872 1.038525 1.829155 -0.511429
Si 4.05595 2.62139 6.40328 -1.754432 0.775015 3.801001
Si 3.30451 4.53488 5.00619 -0.912849 0.341543 2.335264
Si 2.93252 6.40238 0.74796 -5.134639 1.920160 -5.053996
Si 2.33545 8.09718 2.99582 5.653961 2.466979 -4.088346
Si 5.06991 4.40835 7.62166 -2.823371 1.487275 -0.780293
Si 6.80131 3.67146 4.86061 0.637527 -2.777502 2.749956
Si 7.61395 5.75914 6.62356 -0.804465 -0.915982 1.639460
Si 8.21133 7.24979 0.86568 3.165093 2.890107 -6.041735
54
config_type=Fe34B10Si10 Lattice="8.579999685 0.0 0.0 0.0 8.579999685 0.0 0.0 0.0 8.579999600" Properties=species:S:1:pos:R:3:REF_forces:R:3 REF_energy=-360.38371761 pbc="T T T"
Fe 1.82436 0.58226 2.21116 2.633452 -0.813110 0.076487
Fe 1.00013 1.58024 4.32715 -2.582270 0.879424 0.485813
Fe 0.68948 2.62754 7.05995 -1.111003 0.263092 -0.927073
Fe 1.55683 4.90559 3.77573 0.202004 -1.661320 0.874261
Fe 2.11088 4.77960 6.11917 -0.761283 1.491586 1.133288
Fe 0.04490 5.32924 6.69306 -1.993669 -2.449647 2.259011
Fe 0.33501 8.45054 0.40629 0.110813 1.533812 0.194033
Fe 0.39022 8.56480 6.36989 3.320200 -0.705443 2.042705
Fe 2.25517 0.77534 8.08510 -1.400284 -0.200286 1.246259
Fe 2.65515 1.90793 6.15781 -0.704883 -2.398598 0.622283