1
Lattice="10.0 0.0 0.0 0.0 11.0 0.0 0.0 0.0 12.0" Properties=species:S:1:pos:R:3:REF_forces:R:3 config_type=IsolatedAtom REF_energy=-0.04878295 pbc="T T T"
Si       0.00000000       0.00000000       0.00000000       0.00000000      -0.00000000       0.00000000
1
Lattice="10.0 0.0 0.0 0.0 10.0 0.0 0.0 0.0 10.0" Properties=species:S:1:pos:R:3:REF_forces:R:3 config_type=IsolatedAtom REF_energy=-2.97727971 pbc="T T T"
Fe       0.00000000       0.00000000       0.00000000      -0.00000000      -0.00000000      -0.00000000
1
Lattice="10.0 0.0 0.0 0.0 10.0 0.0 0.0 0.0 10.0" Properties=species:S:1:pos:R:3:REF_forces:R:3 config_type=IsolatedAtom REF_energy=-0.03182523 pbc="T T T"
B        0.00000000       0.00000000       0.00000000       0.00000000       0.00000000      -0.00000000
54
Lattice="8.579999685 0.0 0.0 0.0 8.579999685 0.0 0.0 0.0 8.5799996" Properties=species:S:1:pos:R:3:REF_forces:R:3 config_type=Fe34B10Si10 REF_energy=-353.72261577 pbc="T T T"
Fe       1.84542000       0.12946000       0.34954000      -0.45650600      -6.18859600       4.45052000
Fe       0.29886000       2.54609000       1.69750000       1.92578800       5.32638200       0.42810600
Fe       1.70827000       1.91307000       8.35990000      -2.25708200       0.06725000       1.62225600
Fe       0.22460000       3.73955000       6.31597000      -0.85971800      -6.07650300      -2.67911200
Fe       0.56778000       4.97009000       3.36255000       2.23742800      -0.55541900       1.69041900
Fe       2.04010000       5.48893000       7.06839000       3.31021800       1.06341900      -2.16844200
Fe       1.21749000       6.87968000       4.99927000       1.98985100       1.18736100      -2.47885000
Fe       0.43387000       7.77450000       1.79440000       0.26207700      -2.34762000       1.26115100
Fe       2.29331000       2.75404000       2.04053000       3.03380200      -4.32360800       0.24914400
Fe       2.21517000       2.08100000       4.01324000      -0.83497400      -2.31271000      -1.59660100
Fe       2.56350000       2.70587000       5.76644000       0.77315000       2.60086800       3.36274900
Fe       4.21075000       6.62729000       3.98338000      -4.74231600      -5.22708900      -3.86421100
Fe       4.05395000       7.94321000       0.96439000      -2.60914600      -4.22259800       3.31854700
Fe       4.04065000       7.65795000       7.48248000      -1.44629600      -3.82062500       0.77374400
Fe       5.99580000       1.11490000       0.63730000       4.09160900       0.53787300      -5.25953400
Fe       4.35081000       1.07076000       0.11189000      -8.05708400       4.28121900      -3.46841500
Fe       6.26637000       0.65974000       4.37929000      -3.03750000       1.25602000      -1.44063100
Fe       5.62904000       0.51490000       6.81168000       1.35186300       0.05986500      -1.16865800
Fe       4.67938000       1.97085000       2.44639000      -3.55604600       0.32623500       1.57632900
Fe       4.35417000       3.65065000       3.92755000      -0.48106100       0.90453600       0.53427200
Fe       4.32054000       3.50772000       8.00098000      -2.41970300       0.92051900      -0.87782400
Fe       6.07935000       5.22499000       2.41720000      -3.05177500      -0.94370900      -1.83377200
Fe       4.56491000       5.12830000       6.08843000      -1.11264000      -0.92246200      -1.24227300
Fe       5.42646000       7.90924000       2.42455000       1.33180100      -2.34036800       0.32300400
Fe       4.29915000       7.96299000       5.48120000      -1.98095000       5.69079800      -0.48351500
Fe       8.30600000       1.01564000       4.31764000       3.69738700       0.57963100      -1.04731400
Fe       7.80419000       1.06405000       7.58696000       2.08370200       0.12865300       0.18956700
Fe       6.61752000       3.37034000       0.06495000       8.59338700       5.89665300       4.24050700
Fe       6.93745000       2.87393000       3.41780000       0.66783700      -2.45150900      -3.66853700
Fe       8.00465000       5.66694000       0.08684000       0.75518600       1.58181400      -2.29967700
Fe       8.02103000       4.48871000       1.62413000       0.52103500      -0.39507500       1.98698400
Fe       7.23058000       6.01616000       3.92581000       1.54949500       2.02114200       0.80813200
Fe       7.54718000       7.71393000       5.56146000       2.61142400       1.14029200       0.73503300
Fe       6.71723000       7.45971000       8.29731000      -0.45113600       0.55487200      -0.15135000
B        2.06627000       4.33011000       1.56345000      -2.52975800       3.42118000      -2.76487900
B        3.93825000       3.66188000       1.32937000      -1.59445000       0.27588800       2.02165800
B        2.62592000       4.80078000       4.95883000       0.53289700       0.68565900       0.14265900
B        3.27397000       6.47049000       5.81229000      -3.37978400      -1.27191900       0.17394400
B        6.17092000       0.97965000       2.26290000       2.26758800       0.32787700       8.21258000
B        5.44428000       3.13917000       1.14665000      -3.73602900      -0.50499300       4.54980700
B        6.00424000       7.01454000       6.08117000      -2.99772800      -1.30461600       1.69669300
B        5.64578000       7.44900000       4.34809000       6.43424600       0.29910900       0.19454300
B        7.15927000       1.75334000       5.76870000       0.84785200      -0.32687000      -1.15571200
B        8.42102000       3.73174000       8.09955000      -3.81212900      -1.42771600       2.15542600
Si       1.60819000       3.73726000       8.05389000       5.47609300       5.80412400       0.11278900
Si       0.13774000       5.67981000       6.33896000      -3.64649900       4.94660300      -0.66302700
Si       1.85126000       6.10038000       0.51572000      -0.23579500       1.75725900       1.17077500
Si       2.60821000       0.72575000       7.06144000       2.53370800      -1.48209400      -6.47627300
Si       3.05414000       5.30228000       2.70829000       1.45372000       1.28098700       1.90822700
Si       2.65489000       8.50299000       2.92626000       0.10235000      -0.05503500       0.26705500
Si       6.10976000       2.62175000       7.11175000      -3.17765100      -3.79566100      -8.39819300
Si       6.39573000       4.98839000       6.99903000       2.14524200       1.37791300       3.16468900
Si       7.86795000       1.00051000       1.40534000       1.15847000      -5.65285100      -0.56796400
Si       6.51334000       4.15517000       4.85889000      -1.27544700       1.64764700       2.43345800
54
Lattice="8.579999685 0.0 0.0 0.0 8.579999685 0.0 0.0 0.0 8.5799996" Properties=species:S:1:pos:R:3:REF_forces:R:3 config_type=Fe34B10Si10 REF_energy=-359.78366956 pbc="T T T"
Fe       0.45313000       1.33652000       5.25498000      -0.05572000      -0.04338600       0.52490400
Fe       0.44102000       0.95747000       7.87794000      -0.07556700       2.39255100      -2.47180900
Fe       0.99567000       4.47132000       1.49993000      -3.08863200      -5.36304900       6.43119100
Fe       1.66302000       4.52278000       3.80481000      -0.15443600       0.34777000       1.41733400
Fe       0.98187000       7.62663000       6.84880000      -1.32967100      -0.85694300       0.90389700
Fe       3.67564000       0.08724000       4.65454000      -3.32983200      -1.90852200      -2.82440000
Fe       2.45485000       1.16623000       8.38467000       0.91920400       0.21937800      -0.18010100
Fe       3.85600000       1.95182000       1.54563000       0.12291900      -1.23617500       0.60569300
Fe       2.38999000       2.58327000       4.17299000      -0.70406000      -1.02802800       0.22269700
Fe       4.25936000       2.82423000       7.99272000      -2.22028100      -0.24164200      -2.69513600
Fe       3.74872000       3.90496000       2.35140000      -2.30383500      -2.09002400       1.61952100
Fe       2.47622000       4.78958000       0.48800000       6.17381900       0.38397000      -3.28279900
Fe       2.47267000       4.84015000       6.51072000      -3.84811200      -4.00897200      -0.28810600
Fe       3.70592000       5.79073000       2.41399000      -1.02578700       4.11158700       0.74755700
Fe       2.19645000       6.76576000       5.16927000      -0.72364700      -0.96058600      -2.30227600
Fe       4.13847000       5.72301000       6.54939000       2.97631800       0.03592000       0.32598500
Fe       2.62648000       6.85859000       8.40468000      -0.03160200      -0.42648200       1.66607900
Fe       2.51462000       8.22692000       1.54766000      -0.31601800      -0.35244800       1.33781200
Fe       4.60513000       0.38961000       8.40756000       0.40386300      -2.48808300       1.55952900
Fe       4.35963000       1.98640000       4.85480000       2.10884400       3.69584800      -3.28322600
Fe       5.46465000       3.74222000       0.77180000      -1.09432900       0.80383000       0.56252700
Fe       5.93528000       5.27010000       4.26398000       1.09647500       2.96762100       4.35246700
Fe       5.15020000       5.83704000       0.65682000      -0.43592100       2.41936600      -1.10269000
Fe       4.73752000       8.36852000       2.18615000      -1.63632900      -3.07965000       1.36528100
Fe       5.51381000       7.61036000       5.21564000      -1.36063900       4.70614600      -1.05002100
Fe       6.46104000       0.74078000       2.10444000      -0.63050800       3.77565200      -0.51782700
Fe       6.97134000       0.55794000       7.34448000      -0.28206700      -5.33788300      -0.17567300
Fe       6.84103000       2.80122000       4.59791000      -1.65518400      -5.53322300      -0.37033500
Fe       6.93336000       2.55157000       7.34632000      -0.67851800       3.23735000      -3.83385100
Fe       7.42372000       3.25266000       0.88892000      -3.68161300      -2.80780300       9.93215800
Fe       7.20723000       5.05679000       2.06061000       0.78362700       2.83908500       0.41141400
Fe       7.31878000       5.32845000       7.88529000      -4.58278100      -1.93695300      -1.62093200
Fe       7.82121000       7.09868000       5.03868000       3.93776800      -3.75287500       1.12607200
Fe       7.89514000       7.55260000       2.11086000       0.63942000      -4.94607700       3.24278100
B        0.79542000       2.32760000       0.99532000       1.11684700       1.70116500      -0.91225400
B        1.88777000       3.13653000       8.26383000       0.10993000      -1.43004600      -0.06229900
B        0.57398000       5.38949000       6.73364000      -1.15805500       0.11527600      -4.27447800
B        3.94795000       3.79738000       4.69428000      -0.44269300       3.07338700      -0.03138400
B        5.93995000       1.73886000       0.18312000      -0.01598900       0.31849600       1.71534600
B        4.88937000       6.67498000       3.78609000      -4.78188200       1.07884500      -2.49197600
B        6.43146000       7.09055000       3.59996000       2.11132000      -0.22961500      -2.41296500
B        8.41533000       3.22456000       8.29743000       8.22134000       0.38507200      -7.77146900
B        6.64260000       7.68310000       0.70820000      -2.17823000       0.08800900      -1.50903600
B        8.27905000       7.60165000       0.09502000      -0.35255200       0.02676800      -1.71900000
Si       1.37523000       0.87537000       3.12958000       0.55196300      -0.12707600       0.81650200
Si       0.45355000       5.64891000       8.57621000       4.29956600       5.15864600       2.06391600
Si       1.16842000       6.43739000       2.87632000       0.31418700       1.07847100      -0.44224100
Si       3.38958000       7.77938000       6.71453000       1.05724700       2.35091800      -0.32486500
Si       5.03199000       0.87506000       6.36242000       1.02406600       0.80323500       2.29850600
Si       5.69336000       3.79071000       3.13628000      -0.93463900      -6.12175100      -4.40678500
Si       6.21626000       6.16895000       6.23059000       3.18342900      -3.89397700       4.66419900
Si       8.56654000       0.60166000       1.26582000       0.87562600       3.18945200       0.75398700
Si       7.39071000       0.20875000       4.08831000      -0.35889500       5.02319000      -0.82545600
Si       8.08722000       4.05943000       5.36893000       3.44024600       3.87426300       2.51603800
54
Lattice="8.579999685 0.0 0.0 0.0 8.579999685 0.0 0.0 0.0 8.5799996" Properties=species:S:1:pos:R:3:REF_forces:R:3 config_type=Fe34B10Si10 REF_energy=-365.54928256 pbc="T T T"
Fe       0.57739000       1.36268000       6.13951000       3.84372200      -7.51595100       1.88793500
Fe       0.18821000       1.06098000       8.45033000      -0.44820600      -0.07045200       1.78449600
Fe       0.64634000       3.22933000       8.31396000       4.27208600       1.63042400      -0.54142500
Fe       1.15593000       5.18103000       1.60407000      -1.43003300       3.06924400      -0.50115000
Fe       0.57259000       4.51921000       4.50497000      -0.12886500      -0.46777900      -1.29940300
Fe       1.02122000       5.46118000       7.16403000      -0.78016400      -1.42783300      -2.03031300
Fe       1.48868000       7.93498000       1.14018000      -1.82251000      -1.21554100      -1.75011900
Fe       2.00912000       8.15141000       3.08915000       0.40841600       1.85527100       3.13743800
Fe       2.02017000       7.84523000       6.06488000      -1.50172200       0.36302600       0.29434500
Fe       2.57894000       0.41386000       8.03526000      -0.69421600       1.10424900       0.26330400
Fe       3.65583000       2.39382000       2.12212000       0.20948900      -3.24036000      -1.74017800
Fe       2.23460000       2.24943000       4.22489000      -1.69321800      -0.99913900      -0.57921900
Fe       4.01737000       2.61693000       8.05834000       1.13721400      -1.01018700       0.25959500
Fe       4.00526000       3.76858000       3.66966000       0.11620800       1.39654800       2.02435400
Fe       3.26750000       3.66065000       5.58055000      -0.34839500       2.28579400       1.30741900
Fe       3.14502000       5.06954000       8.49868000      -1.79761400      -0.79681900      -2.33554500
Fe       3.13250000       6.38992000       2.20035000      -1.06677900       7.25581600       1.36964100
Fe       2.18199000       6.07149000       4.43161000      -0.20533600      -0.71635500      -1.20624200
Fe       3.34049000       5.99875000       6.30608000       1.30766900      -1.47467100       1.78569900
Fe       6.10940000       1.64687000       2.03244000       0.20026200      -0.93193000       0.59781100
Fe       5.30735000       2.41614000       5.60203000      -1.12724900      -1.33869500      -2.00602100
Fe       5.74089000       3.64604000       0.64283000      -0.69977900      -1.28665000       0.10444500
Fe       6.00804000       3.40850000       3.58967000       1.67153200       0.80927700      -0.04284200
Fe       6.17206000       6.81626000       3.46166000      -4.96794400       0.95953300       0.64475500
Fe       5.67677000       6.89865000       6.43102000      -0.35812700       0.12173300      -0.97337400
Fe       5.21373000       7.81592000       1.57482000      -0.40924000      -0.50443500       0.15699400
Fe       8.22650000       2.13782000       4.45049000      -2.09113200       0.41213100      -3.15263900
Fe       7.95932000       3.03752000       2.35152000       0.98209500       1.28440800       1.01059300
Fe       6.57761000       3.40302000       6.90763000      -1.24820700      -2.38021100       2.33025100
Fe       6.43587000       5.60695000       1.10461000      -1.44951300      -0.67281000       1.93493200
Fe       6.74137000       5.18083000       5.25564000       0.16800900      -1.16593100      -0.68248700
Fe       8.40462000       6.83667000       3.76194000       6.27088600       3.05053800      -3.31492200
Fe       6.99562000       8.53192000       4.68012000      -1.25793000       2.37922000       3.39770700
Fe       7.48271000       8.12473000       7.41064000      -0.36662300       1.09344400       0.19530400
B        1.97040000       1.29337000       1.15398000       0.32490100       0.84959700       0.59758100
B        1.92275000       6.77006000       8.00598000       1.91847200       2.01186000       0.98250100
B        2.49258000       3.16765000       7.13573000      -2.92083300       1.16014300       1.88155300
B        3.66075000       7.34580000       5.08613000       1.45803400       1.58463500      -1.89560400
B        6.07459000       5.08798000       7.46354000       2.28534000       0.00764300      -1.77972800
B        5.03956000       5.55681000       8.43098000      -4.93442300       2.09879300       1.14046500
B        6.91333000       1.31187000       6.00271000       1.06477100       0.44239000       1.70599300
B        7.74479000       3.06100000       0.60136000      -4.70818400      -0.80054400      -1.71254200
B        7.70074000       5.05601000       7.21333000       0.75091800       0.17911100       0.39366500
B        6.91551000       6.43145000       8.27363000       1.33517000       2.01656100      -3.58058500
Si       1.61267000       3.25179000       2.14018000       0.39682000      -2.42447400       0.55240200
Si       3.18565000       1.43244000       6.13171000       0.32772900      -1.20039300      -0.30522300
Si       3.68289000       4.65816000       1.85722000       2.92381100      -6.04541700      -2.24803200
Si       4.13662000       7.48907000       7.97980000      -0.46773700      -1.16568600       0.92550500
Si       5.01570000       0.05591000       3.97893000      -3.17128000       1.07022500      -0.46908800
Si       5.64579000       0.78920000       8.56891000       0.48911600       1.22487800      -1.59251100
Si       8.07810000       0.47491000       3.08166000       2.61799000      -0.03481700      -4.58670600
Si       8.47076000       3.13430000       6.22071000       0.81749600       7.58667100       1.66604100
Si       7.45108000       5.50025000       2.79353000       3.23572400      -8.45692700      -0.27884800
Si       8.13826000       7.05922000       5.62614000       1.56138500      -1.95915600       6.27202500
54
Lattice="8.579999685 0.0 0.0 0.0 8.579999685 0.0 0.0 0.0 8.5799996" Properties=species:S:1:pos:R:3:REF_forces:R:3 config_type=Fe34B10Si10 REF_energy=-363.5837731 pbc="T T T"
Fe       1.89126000       2.18019000       7.18614000      -0.46319300       1.69372500       4.90998800
Fe       0.08005000       3.35141000       2.76234000      -1.60945800      -1.25430500      -1.72464400
Fe       1.29908000       4.17607000       4.26102000      -0.34162100      -1.54605800       0.09174800
Fe       0.19301000       3.90932000       7.54145000      -0.02318200      -0.36822700       0.70212300
Fe       1.84614000       6.21796000       7.59689000      -1.80026300       2.25556500      -0.43200800
Fe       2.48336000       1.42093000       5.55213000      -0.15857900      -2.08976700      -3.80040800
Fe       3.66321000       1.66431000       0.54027000      -0.84427500      -0.96904600       0.94314100
Fe       2.98884000       1.91025000       3.09764000       0.34163700      -0.85124500       0.13569500
Fe       3.23282000       3.85239000       1.72210000      -0.44988900      -4.16004300       3.98881800
Fe       2.33205000       5.66111000       2.98522000      -0.97271400       0.72347000      -1.32410300
Fe       2.65544000       4.37432000       8.20232000      -1.38141100      -7.88160100      -7.25427400
Fe       3.98824000       6.17278000       4.66045000      -1.16275600       0.40344400      -0.34475000
Fe       2.85684000       7.94244000       3.75095000      -0.81565900       0.71171000      -0.60291100
Fe       3.10464000       8.23276000       7.71756000       0.75750500       1.09640000      -3.02488300
Fe       4.64383000       0.50611000       4.73184000      -1.37216900      -1.25261900      -3.56344700
Fe       4.55491000       1.16763000       6.67932000      -4.90883500      -4.05838800       0.35435900
Fe       6.03340000       2.80020000       3.02055000      -0.04365900       0.23865500      -0.09165200
Fe       5.90485000       2.09543000       7.35527000       8.42428500      -1.27299800       2.16782400
Fe       5.35244000       2.97489000       5.22458000      -1.88878100      -0.13944100      -1.57412100
Fe       4.71317000       3.41742000       8.11817000      -2.48500700       2.78403000       0.74747100
Fe       5.83755000       5.02014000       2.21244000       1.43690300       0.08445000       0.60014900
Fe       4.32378000       6.77533000       2.10636000      -1.12329800      -0.99445300      -0.62699700
Fe       5.75086000       6.38906000       5.43992000      -0.62742800      -0.97721100      -0.05097900
Fe       4.93870000       5.79852000       7.73229000      -0.34645100       2.04497100      -1.35320400
Fe       6.29187000       7.94287000       3.25879000      -2.65014200      -3.05137500      -0.81967300
Fe       7.60132000       0.95679000       3.64405000       6.13751900       3.58332300       4.85025200
Fe       7.70935000       0.42957000       8.10874000      -7.70317300       1.04673400       3.90536500
Fe       7.95873000       2.62285000       5.33668000       2.80172500       1.67373100       0.03437000
Fe       6.43755000       4.11998000       6.42358000      -1.86825200       1.46646600       2.59239900
Fe       6.98809000       5.34748000       0.16498000       1.73308700      -0.55756500      -1.47626200
Fe       7.94961000       5.14530000       5.78616000       3.68179000       1.87520600      -1.29340100
Fe       8.12097000       7.11538000       1.44973000       2.22740500       1.36804300      -4.52259200
Fe       8.20411000       6.21691000       3.10131000       0.32337700      -3.71631100       4.25764300
Fe       7.33031000       7.22416000       6.14535000       3.04901400       2.50375900       2.09482200
B        1.09761000       1.83965000       4.12702000      -0.89757300       0.39972600      -0.79638000
B        0.14572000       8.27602000       2.81698000       0.87825300      -0.36275800      -0.37614400
B        0.22654000       8.51447000       5.37057000       1.48399300       3.11115500       0.20549100
B        4.11740000       0.11080000       2.10535000       1.36048800       1.87803400       1.76261500
B        2.81839000       5.36089000       0.80576000      -4.23545700      10.74021800       6.89448500
B        4.26930000       4.97645000       0.79375000       5.75217800       0.63093700      -0.66407600
B        3.51282000       7.80322000       5.90573000      -0.02625300      -0.30376300      -0.86122200
B        5.70100000       7.85534000       7.38505000      -0.35778500       0.82562500      -1.21534900
B        7.34487000       4.32072000       4.12398000      -0.43741700      -0.53648500      -0.67475400
B        8.10737000       7.75061000       4.32521000      -1.89541500      -3.26671700      -2.30113600
Si       0.71057000       0.23285000       7.11143000       7.37028300      -1.59376100      -0.87094600
Si       1.28136000       1.66599000       1.44030000      -0.17887300       0.29012300      -0.44873400
Si       1.65623000       6.05721000       5.29987000      -0.69123900       2.71716700      -0.14512700
Si       4.06131000       4.11967000       3.81317000      -0.20340200      -0.66879600      -0.45336800
Si       2.62629000       4.08604000       5.98597000       1.87255400      -0.90586800       1.04690200
Si       2.60696000       8.01490000       1.06632000      -2.59230900      -1.40641600       3.13175400
Si       6.16573000       7.29048000       0.66605000      -2.51517500       1.78165600       0.76668500
Si       7.03212000       1.00399000       1.84846000      -1.11387100       0.41955700      -7.82167200
Si       6.58660000       1.05693000       5.42132000      -0.72872000      -2.44323300       2.77344300
Si       6.67408000       3.27237000       0.62008000       1.28168700      -1.71943000       1.55167600
18
Lattice="6.5 0.0 0.0 0.0 6.5 0.0 0.0 0.0 6.5" Properties=species:S:1:pos:R:3:REF_forces:R:3 config_type=Fe12B3Si3 REF_energy=-121.5915925 pbc="T T T"
Fe       2.68768000       0.96556000       3.40412000      -0.10579800       0.41154200       0.00022900
Fe       5.92022000       3.30630000       4.14842000       0.33777900       0.10360600      -0.98321900
Fe       4.22119000       4.66256000       1.02723000      -1.55254600       0.24459600      -1.57858100
Fe       1.84551000       3.96117000       5.11007000      -2.03213400      -0.05860100      -0.48437500
Fe       5.50703000       0.45598000       0.74983000      -0.81793100      -0.73332400       2.16401000
Fe       0.17840000       4.82185000       1.20770000       0.15713400       0.44048900      -0.52391800
Fe       2.15490000       0.54819000       0.75190000      -0.79104300       0.08836800       2.00252800
Fe       4.08164000       5.02113000       4.92964000       0.86190200       2.11157400      -1.05358500
Fe       3.51988000       3.34146000       3.29237000       0.53861600      -0.50949000      -2.00394800
Fe       3.80368000       3.00474000       5.42108000       0.96341300      -2.92952700       2.49623900
Fe       0.37921000       1.24283000       5.77364000       0.78425500       0.84220800      -1.63471700
Fe       3.75273000       0.63571000       5.66949000      -0.04700700       0.02593200      -0.35027400
B        4.85692000       5.09369000       2.67999000       0.55906900      -0.61660300       1.88743600
B        0.88455000       3.63115000       2.62766000       0.23805400      -0.46230700       1.59043800
B        2.19718000       5.15317000       0.13868000       0.70113000       0.37700300      -0.12142000
Si       2.25657000       3.16242000       1.14033000       0.10982900      -1.13985700      -0.81080200
Si       0.38825000       1.33452000       2.72251000       0.30092500       0.65095400      -0.19080700
Si       2.31883000       5.18881000       2.85940000      -0.20564600       1.15343700      -0.40523200
54
Lattice="8.579999685 0.0 0.0 0.0 8.579999685 0.0 0.0 0.0 8.5799996" Properties=species:S:1:pos:R:3:REF_forces:R:3 config_type=Fe34B10Si10 REF_energy=-362.59968794 pbc="T T T"
Fe       1.63532000       0.19840000       2.31748000       1.13460400       0.97864500       0.75910400
Fe       1.81043000       0.40621000       8.18124000       1.15364400      -1.74887900       1.76483600
Fe       2.07204000       2.25086000       4.30866000       0.36066900      -0.45271700      -1.05268800
Fe       0.73582000       2.96683000       1.29161000      -6.68379200      -3.20216000       1.40574100
Fe       1.30482000       3.09768000       6.36028000       2.83508600      -1.59070000      -0.45492200
Fe       1.53488000       3.60458000       8.20873000       1.25523300       1.44027200      -0.06931300
Fe       2.08225000       4.61067000       1.71040000       4.30219000       4.64646300      -3.27122200
Fe       1.05187000       4.76632000       5.07545000       0.46730700      -2.02077700      -1.34403900
Fe       1.26127000       6.54631000       2.95170000       2.56244700      -2.68147000       3.91963400
Fe       1.25070000       6.15789000       7.60491000      -0.83242000      -0.17575500      -3.15895900
Fe       0.31005000       8.28192000       6.24126000      -3.16718700      -0.14199500       5.06448100
Fe       2.71577000       0.53633000       6.13198000      -0.02530800      -0.53423600       0.30413300
Fe       2.47898000       2.17490000       1.50304000       1.14019200      -2.59735200       1.62994300
Fe       3.58838000       1.93954000       7.76299000       0.43730900       2.36470800       0.55467000
Fe       3.93258000       3.64260000       3.17247000      -0.28302300       0.08878400      -0.02725600
Fe       3.37398000       4.62116000       6.70100000      -4.42975700      -1.86440800      -4.71646700
Fe       3.53684000       5.87979000       4.66532000      -1.33529000      -0.91092300       1.49389600
Fe       4.06683000       6.82065000       6.85065000      -0.67173000      -0.66842100      -0.57117300
Fe       4.67940000       0.05858000       7.43081000      -0.84120100      -0.48469600       2.83503100
Fe       5.61836000       1.73492000       3.42624000      -2.56426000       0.16555300      -2.37350500
Fe       4.52573000       1.46786000       5.36217000       0.32289800       1.02002200       0.08575500
Fe       6.26874000       1.46481000       7.40875000       1.59528800       4.89177500       2.66297700
Fe       5.76967000       3.58082000       0.21657000       0.44342000      -1.66772300       0.54227800
Fe       5.23008000       4.03389000       6.38815000       1.38474500      -3.18597100      -1.02740700
Fe       4.98803000       5.35454000       1.56198000       1.77575900      -1.17181000      -2.18544900
Fe       5.76137000       6.18359000       5.23711000      -0.16606000      -0.48601400      -0.22635600
Fe       5.89104000       7.56679000       3.53236000      -1.08582100       1.42540600      -0.44509500
Fe       8.27198000       2.49762000       5.35899000      -2.28088200      -1.14710300      -2.27482700
Fe       8.40979000       4.10943000       2.89620000      -9.33290800      -1.15173200       1.20947800
Fe       7.69613000       5.06129000       0.63068000      -0.00256800      -3.46739400      -2.65859600
Fe       6.53102000       5.42540000       7.22522000      -4.30543500       5.06996400       0.78675100
Fe       8.16046000       6.42100000       5.13683000      -1.37927700       0.14381000       0.16799100
Fe       6.65984000       7.69730000       0.76975000      -0.51417100       0.12567300       0.04762600
Fe       8.05841000       7.67214000       3.12043000       1.10960000       6.56860000       0.33166700