54
Lattice="8.579999685 0.0 0.0 0.0 8.579999685 0.0 0.0 0.0 8.5799996" Properties=species:S:1:pos:R:3:REF_forces:R:3:MACE_forces:R:3 config_type=Fe34B10Si10 REF_energy=-352.89092233 MACE_energy=-353.1652986755355 pbc="T T T"
Fe       1.46495000       0.71583000       1.12880000       3.73230100      -3.41607500      -3.76209700       3.43194114      -3.12134436      -3.00576981
Fe       0.56244000       2.07917000       1.96452000      -3.31290700       4.06628900       2.54508600      -3.24623488       3.60228927       2.25114528
Fe       0.86636000       2.12990000       5.00906000     -10.85567700      -2.87102900      12.20968700     -10.83623886      -2.76231006      12.37273870
Fe       0.24697000       2.61233000       7.83061000      -0.37811800      -2.03816900      -0.08744800      -0.40217789      -1.84746775       0.01276497
Fe       0.35437000       4.66395000       8.16447000      -1.30300600       1.62250000       0.84662400      -1.25495452       1.56554480       0.90610718
Fe       0.83543000       8.00840000       3.01492000       5.54921000      -2.55787300       0.52513800       5.64946602      -2.82504552       0.41432457
Fe       2.03952000       7.84431000       6.63062000      -4.28706100       1.82495200      -1.68802900      -3.94809920       1.79594853      -1.68822191
Fe       3.34318000       0.11090000       2.96052000      -0.46571400      -0.35056300       0.37864800      -0.64549124      -0.07855522       0.36719912
Fe       3.26317000       2.11539000       1.48699000      -3.47884800      -0.03222100       0.61542300      -3.43441487      -0.14606501       0.07831778
Fe       4.14313000       2.75755000       3.31065000      -0.71378000      -2.73118300       1.93004800      -0.58770710      -2.14622187       1.79549428
Fe       2.55051000       2.67374000       7.19710000      -2.55215900      -0.93589000       1.77261600      -2.25053389      -0.80350634       1.68670444
Fe       3.61327000       2.86500000       5.46497000       1.55763200       0.20514300      -0.56676300       1.31594086       0.17896303      -0.33985166
Fe       2.62400000       4.72550000       1.39174000      -1.08585200      -1.19598700       0.59645400      -1.27835413      -0.93513638       0.66065376
Fe       2.20317000       5.21693000       3.87451000      -3.92870900      -4.38103900      -4.92199500      -3.79370202      -4.42085409      -5.18517866
Fe       3.93082000       4.37819000       8.08226000       1.07616800       0.44807800      -0.99700400       1.08639696       0.29857955      -0.75515468
Fe       2.44961000       7.01753000       1.08943000       0.32119000      -1.55635000       3.27006500       0.55834263      -1.49692381       3.29982783
Fe       3.02500000       6.15780000       5.08193000      -1.08486800       1.64126100       3.95415400      -0.27311902       1.78002146       4.45066590
Fe       5.77712000       0.44616000       0.16142000      -2.43333700       0.07175000       4.13474700      -2.23425139       0.41721312       4.28102283
Fe       5.66964000       0.14892000       2.95259000      -3.67617900       1.90971100       0.12919700      -3.61295795       1.86060405       0.36978591
Fe       5.39484000       2.66317000       1.55162000       4.08183700      -3.39937100       3.88213200       4.01098153      -3.63947029       4.16356265
Fe       5.91309000       3.40423000       8.31953000       8.90196200       5.48305700      -2.72562400       8.46196985       5.42910662      -3.35209367
Fe       4.96126000       4.63305000       3.41410000      -3.60269200      -2.00302700       2.25051900      -3.49796052      -2.45609119       2.70273263
Fe       5.11347000       6.81217000       1.78872000      -0.87770500       0.06714300      -1.61156800      -0.72694380       0.31667415      -1.73721308
Fe       5.00950000       6.45991000       8.24507000      -2.30619500      -0.19808200      -1.52355700      -2.29880635      -0.28506234      -1.76148948
Fe       4.64263000       7.71190000       5.75084000       2.50156800       4.23919200      -1.55456800       2.38261495       4.35301926      -1.81050719
Fe       7.32285000       0.33022000       5.03535000      -0.99210900      -0.59745100       4.73628300      -1.09287976      -0.59634332       4.43527895
Fe       6.75330000       1.32958000       7.05071000       0.53851300       2.01290400       0.36400700       0.55130952       1.92859335       0.59385693
Fe       6.82686000       2.53028000       3.66692000      -0.08907100      -0.12987400      -0.26318300       0.13128037      -0.22263253      -0.14038149
Fe       6.83617000       5.56618000       0.59386000       1.74434500       1.47371700      -3.32847200       1.46417937       1.46949473      -3.39649986
Fe       8.27091000       4.29855000       2.87718000       3.23308900       0.33980500       1.37352500       3.18597054       0.25462540       1.36311935
Fe       6.58774000       4.90718000       4.97515000      -1.87594500       0.58060600      -0.05143700      -2.28754625       0.75477411      -0.68894761
Fe       6.86773000       6.79187000       3.27473000       1.52763600      -2.76254700       0.67579100       1.59310206      -2.63205890       0.36115952
Fe       8.09083000       8.29691000       0.84396000      -4.18921500      -1.95965200       9.56442300      -4.20529609      -2.18548175       9.84288172
Fe       6.62133000       7.67903000       7.47205000      -3.65417600       1.51975600      -3.32990400      -3.86329564       0.98666764      -4.00631377
B        3.45077000       6.81738000       6.75435000       2.04131500      -2.79808300       3.80923700       2.04231015      -3.12476623       4.06492724
B        4.67436000       1.10514000       4.73414000       0.75036200       0.95391600      -0.52852700       0.71762008       0.69149065      -0.41889533
B        6.18153000       2.20088000       5.47737000      -4.49435700      -3.20609500      -2.27763700      -4.45349915      -2.98038811      -2.60092624
B        5.08133000       4.10197000       6.35983000       0.35152900       0.25548900      -0.65354500       0.53113885       0.61724960      -0.36391394
B        4.48663000       4.29393000       1.40792000      -0.27448100       1.04603100       0.21283300      -0.21140863       1.13272677      -0.10672918
B        4.96286000       5.88068000       6.14703000       0.60492000      -1.85032800       0.29314600       0.39856454      -1.95566923       0.38741998
B        8.17242000       5.65216000       5.55863000       1.00443800       0.65677900      -0.69824300       1.40979199       0.39077533      -0.23702223
B        7.98743000       6.92663000       6.60530000       5.86774900       2.58695800      -4.05103700       5.36353324       2.50147891      -3.32338889
B        7.10769000       5.72812000       6.91109000      -2.33709700      -3.34606800       1.34633400      -2.54482596      -3.35676763       1.41494019
B        7.81665000       6.81498000       8.33858000       5.04350100      -2.41043400       0.97359300       4.92483687      -2.71185433       0.19203380
Si       0.06983000       0.14925000       7.74742000       4.12649000       2.60901100      -8.87608100       4.12143804       2.68241049      -8.87092812
Si       1.93337000       2.41223000       3.74634000      10.14534600       2.98113100     -12.18526000      10.31882191       2.98521984     -12.13447180
Si       0.75978000       6.02813000       1.69309000      -4.13401100      -0.74920300       1.02787300      -4.07767397      -0.90047395       0.83818749
Si       2.22023000       5.10313000       7.16329000      -1.58663400       1.19675500      -1.89967800      -1.61828993       1.01589901      -1.74336846
Si       3.27754000       8.17117000       8.35443000       4.04667900       4.58101600      -2.24829100       4.07706668       4.57106943      -2.02429585
Si       4.48145000       2.18337000       8.34202000      -5.72220500      -5.96162700      -4.99603400      -5.75568124      -5.38485238      -5.04113826
Si       6.36439000       4.54151000       2.12641000       2.28764700      -2.33178900       1.39384200       2.23546793      -2.09554283       1.40297285
Si       4.52267000       6.51460000       3.75633000       0.42177200       5.22743800       1.25328700       0.29130126       5.29559299       1.22556629
Si       7.68278000       0.22257000       3.11016000      -0.17295300       4.89916800      -3.86478000      -0.10719280       4.85119500      -4.12719931
Si       7.35363000       3.38410000       6.13231000       4.40786200       1.27045000       2.62604800       4.28414973       1.38365830       2.92450837
54
Lattice="8.579999685 0.0 0.0 0.0 8.579999685 0.0 0.0 0.0 8.5799996" Properties=species:S:1:pos:R:3:REF_forces:R:3:MACE_forces:R:3 config_type=Fe34B10Si10 REF_energy=-354.71875992 MACE_energy=-354.2787166982716 pbc="T T T"
Fe       0.43313000       1.19321000       2.96848000       1.47291300       2.99028000       0.61180900       1.44637735       2.69177243       0.39724858
Fe       0.91365000       1.12516000       8.09995000       2.76260400      -2.00335600       1.20968300       2.38875236      -1.63822763       1.20689459
Fe       1.17142000       2.67870000       5.23446000      -1.90323000       6.04651700       0.58026800      -2.37763718       6.64941772       0.29908874
Fe       0.60772000       3.85484000       0.87278000       2.66909500       4.89444800       4.53699300       2.38883841       4.96000598       4.31538522
Fe       1.41565000       3.44858000       3.01161000      -0.29549500       2.03729500      -0.74017400      -0.06616754       2.13549349      -1.11865433
Fe       0.04226000       2.91249000       8.09734000      -3.39897200      -2.84207300      -2.69442200      -2.79313027      -2.89722220      -2.64210300
Fe       1.33282000       7.09057000       5.22634000      -0.45239700      -1.35392500       0.92503500      -0.39171733      -1.22847329       0.78422181
Fe       2.06045000       7.92051000       0.98063000      -3.11321000      -0.30108300      -2.49280600      -3.50683060      -0.47403544      -2.51435354
Fe       2.03627000       8.24295000       3.50701000      -1.42216600       4.38122900       0.88517600      -1.88084675       4.19555551       0.69084761
Fe       0.01253000       8.02686000       7.00667000       2.58679700       0.98610200     -11.80201700       2.46399584       0.69957384     -12.01665712
Fe       3.00353000       0.57289000       6.13981000      -1.03922300       0.18357300       0.93137300      -0.77619917       0.19994343       1.02672746
Fe       3.69949000       2.65196000       7.51811000       2.76433000      -4.34399200      -3.80269000       2.22267478      -3.93932724      -3.64762365
Fe       2.94478000       6.44154000       3.03987000       7.21319500      -3.66655800      -1.17614100       7.19461758      -3.60650768      -0.99420509
Fe       2.94309000       5.75189000       6.64956000      -6.24071800      -0.74678300       3.86021800      -6.03985631      -0.61863188       4.49777520
Fe       3.71160000       8.39321000       1.86324000       2.24845700      -0.43546600       0.28887200       2.69567113      -0.20766868       0.89101062
Fe       4.07810000       8.43915000       4.32840000       2.88035800       1.28304800      -0.49181300       3.00112847       1.09056515      -0.78108325
Fe       5.57499000       0.73262000       6.31633000      -3.12774100      -1.68249800      -0.98058200      -2.80625837      -1.93694010      -1.34241672
Fe       4.70712000       1.94493000       1.65492000      -2.04675700       4.97917500      -3.67899600      -1.62846379       4.68436575      -3.67029271
Fe       4.73401000       4.18392000       1.24748000       0.71501700       1.80608500      -0.06999200       0.57516453       1.77763293      -0.09596578
Fe       4.56687000       4.22266000       4.39618000       0.73801700       3.32591500      -2.10569900       0.28446293       3.64159168      -2.11922707
Fe       4.51224000       4.61167000       7.05684000       2.53211900      -0.41024200       0.53825400       2.71181792      -0.59559806       0.36052128
Fe       6.32808000       6.81945000       4.24288000      -3.20445400      -0.33519400      -1.28892300      -2.30431068      -0.28529563      -0.97687333
Fe       6.22240000       7.17309000       0.16230000      -3.30904600      -2.75215800       1.90373500      -3.48581409      -2.96416070       2.02859690
Fe       4.54224000       7.44382000       7.03838000       0.17895600      -5.02037800      -8.74618400       0.15979970      -5.48505615      -8.50061019
Fe       4.73272000       8.55832000       8.35561000      -0.10588400       8.96287400       6.54083400      -0.35360296       8.95926170       6.06683448
Fe       7.67285000       2.82429000       2.17742000      -2.12886900      -0.76272600      -2.06587500      -2.07163771      -0.71851298      -1.65013485
Fe       6.74071000       1.77406000       4.33655000       0.47479500       0.50025500      -0.42349800       0.23819231       0.57042667      -0.66481298
Fe       7.16362000       1.61896000       6.68131000       5.11373900       1.83737400       0.70818800       4.73606624       1.64032449       0.79808855
Fe       6.73653000       4.13840000       7.84564000       0.19062300       0.32905600       3.59274800       0.18289496       0.67703372       3.66569642
Fe       6.61248000       5.35948000       2.44590000       0.96755600      -0.77403900      -0.47053600       0.70740502      -0.44755351      -0.07383653
Fe       8.39074000       4.95678000       4.82580000       0.50677700       3.21370700       1.22596300       0.60993527       2.62918634       1.02812422
Fe       6.62275000       6.29700000       6.29237000       0.91106900      -0.58785400       1.74696000       0.59159274      -0.41599124       1.49056092
Fe       8.00875000       8.14674000       2.12563000      -1.25903800      -1.94608200      -3.37077000      -1.18540847      -1.48780282      -3.73053585
Fe       7.96861000       8.10559000       4.08816000       1.24434400       0.03207600       4.40361200       0.39186145      -0.08923118       4.85310012
B        3.14587000       1.61638000       2.59818000      -3.96044800      -1.57388800      -2.24367700      -4.09104162      -1.10893563      -1.81653749
B        4.07212000       1.93087000       3.78701000       0.55534200       0.12762300      -3.25123200       0.62735509      -0.00004974      -3.31057831
B        2.24412000       1.90783000       4.05913000      -1.80380000      -9.70850100      -5.48536600      -2.00768780     -10.09877314      -5.34833522
B        2.90130000       3.06657000       4.45062000       2.48509300       7.60479000      -1.50334300       3.55940560       6.79378124      -1.27956877
B        2.82587000       3.80138000       5.80651000       0.21675600       2.27927400       3.92227300       0.39729403       2.45408096       3.52060881
B        2.60929000       5.04297000       1.66311000       0.12617300      -0.77075900      -0.46531300       0.00826282      -0.80161962      -0.41690312
B        2.47198000       4.95014000       4.32601000      -0.76752800      -1.31946700       0.35153300      -0.88876236      -1.13581362       0.30014507
B        2.73354000       7.81887000       7.66829000      -1.47869400      -0.15377200       0.00458000      -1.41569190      -0.10977961      -0.12637639
B        5.68071000       2.28134000       7.79544000      -0.95924500       0.41857400       1.11780500      -0.90773615       0.36665862       1.08685637
B        7.77536000       3.70665000       3.76574000      -0.44877700      -1.48394500      -0.38974400      -0.40652365      -1.56643061      -0.41848482
Si       0.79518000       0.92195000       5.77957000      -1.66645900      -4.94136200      -1.10925300      -1.52104669      -4.64904031      -1.01094348
Si       0.88055000       4.20706000       6.73551000       1.15626000       3.58432200      -0.32349000       1.20665393       3.41638228      -0.05024380
Si       1.15025000       6.44729000       2.43826000      -7.77651300      -1.83655100      -1.54918700      -7.75225991      -1.90850587      -1.57195144
Si       2.82820000       3.29548000       0.50208000      -4.05499500       1.58525200       5.32597100      -3.82120324       1.31418807       5.25557302
Si       4.14031000       6.38272000       0.30005000      -2.16949800      -2.44928300       2.57761000      -2.27938647      -2.60192598       2.38212918
Si       3.68345000       6.43010000       5.01209000       3.98893100       0.98565200      -2.13453700       3.82602588       1.15127274      -2.21244356
Si       5.73751000       0.59059000       2.53265000       5.08228400      -4.90021500       2.23852200       5.24064387      -4.60972652       2.73232260
Si       4.51163000       2.47994000       5.36819000       2.60737700      -2.86786400       7.12589500       2.61594027      -2.68547687       6.93461341
Si       6.43436000       3.75222000       5.86206000       1.38008400       0.66155200      -3.64612400       1.29446959       0.51631499      -3.58232620
Si       8.06432000       7.52318000       8.55473000       2.36409700      -3.06603600      11.34847700       2.99192092      -2.90251578      11.07110738
18
Lattice="6.5 0.0 0.0 0.0 6.5 0.0 0.0 0.0 6.5" Properties=species:S:1:pos:R:3:REF_forces:R:3:MACE_forces:R:3 config_type=Fe12B3Si3 REF_energy=-113.87843945 MACE_energy=-118.06320590589945 pbc="T T T"
Fe       5.40234000       5.43492000       1.53729000      -1.39532100       2.04028400       0.71142300      -1.78764382       1.99788409       0.80395116
Fe       2.09750000       2.10361000       0.54730000       2.35673700      -0.33103000       1.27254800       2.44181086      -0.79039559       1.80160864
Fe       2.84360000       1.73250000       3.81271000       2.28004000      -1.18251600      -0.27344700       2.02468178      -1.21052442      -0.12952483
Fe       0.77541000       4.93717000       1.04317000       1.56096300      -3.83372900       1.76362000       1.67925282      -3.61883901       1.33195566
Fe       0.07665000       3.70431000       3.74351000      -0.75952900      -0.39175400      -2.23189700      -1.18678257      -0.46512112      -2.18773060
Fe       4.77171000       3.58949000       4.78220000      -1.99219600      -4.62409700       0.48420500      -1.31284918      -3.94703789       0.46864163
Fe       4.12430000       1.49867000       1.46476000       0.29771700      -2.38794700       0.28396300       0.18107021      -2.96327815       0.38468498
Fe       0.95387000       5.17746000       5.28728000      -0.57085000      -0.50160400      -1.80733600      -0.50865970      -0.39086318      -1.16309886
Fe       1.93602000       3.09888000       2.36598000      -0.08855100       0.43128300      -0.27209000      -0.12416060       1.04166099      -0.89299538
Fe       5.69037000       1.28357000       4.20026000      -0.40866000      -0.49067900       0.18976600      -0.64407831      -0.59965092       0.20780874
Fe       1.94321000       2.86141000       5.39871000      -0.55906500       0.73218900      -1.80086600      -0.66250670       1.03823867      -1.66170514
Fe       4.33122000       5.38124000       5.25469000      -0.73272900       4.56545400       1.52017900      -0.58366629       3.94968969       1.33305475
B        0.37598000       1.64060000       1.21420000      -3.21263000       2.85095800       0.76078000      -2.82820594       2.53331371       0.04533263
B        1.88110000       4.04794000       3.96741000       2.48956600       2.45119300      -0.32261600       2.23551968       2.40259324      -0.20301890
B        3.63878000       0.94242000       5.41981000      -0.01444500       0.67937600       0.95779200       0.39900306       0.54116600       0.93729612
Si       1.19380000       0.26963000       0.19686000       0.54051800       0.24528300      -1.93219100       0.71193062       0.32969032      -1.77228727
Si       4.57825000       3.47658000       1.16117000       0.15934200       1.26766700      -0.81102600      -0.09835183       1.55720493      -0.81020487
Si       1.09558000       0.76720000       2.75124000       0.04909300      -1.52033200       1.50719200       0.06363593      -1.40573133       1.50623155
54
Lattice="8.579999685 0.0 0.0 0.0 8.579999685 0.0 0.0 0.0 8.5799996" Properties=species:S:1:pos:R:3:REF_forces:R:3:MACE_forces:R:3 config_type=Fe34B10Si10 REF_energy=-356.0869274 MACE_energy=-355.87111992909786 pbc="T T T"
Fe       0.92877000       1.08311000       2.12831000      -0.53214900      -1.15432400       0.53007800      -0.82002171      -0.96206247       0.61337698
Fe       1.12794000       0.45096000       7.37327000      -2.86345100       2.18226700       1.45805300      -2.40831016       1.90948901       1.23220896
Fe       0.91289000       3.61082000       1.96264000      -1.66570100       0.50807500      -4.76654600      -2.03206200       0.56072982      -4.71039680
Fe       0.97242000       3.25012000       3.83975000      -0.85629000      -1.23507100      -0.91491200      -0.53571351      -1.34754813       0.07023763
Fe       1.43574000       3.84332000       5.84621000      -1.94378300      -0.72872400       4.94145300      -1.87749615      -0.65713616       4.39975017
Fe       0.45897000       5.99881000       1.32384000       1.86679900       1.45939200      -0.33976700       2.08627689       1.46535878      -0.03750181
Fe       0.05714000       6.25044000       6.01250000       0.66851500      -0.88142700       1.67028200       0.39757016      -0.97714185       1.23931348
Fe       1.87526000       7.05991000       7.27744000      -5.90957000       6.81146600       5.95768600      -5.53314888       7.19122470       6.01629745
Fe       4.21220000       0.80536000       3.81626000       0.44958900      -1.97725700       0.54591300       0.57736363      -1.80785732       0.35883374
Fe       2.64196000       0.75311000       5.88605000       0.80305000      -0.92688600      -1.50973400       0.38667334      -0.77550229      -1.54879437
Fe       2.51735000       4.27963000       7.86001000      -0.17185400       2.88247300       0.00075600      -0.29043394       2.47378799      -0.15921541
Fe       2.46175000       4.76211000       4.38544000       2.27245000       6.36429500      -0.60000700       2.22694512       5.81522718      -0.84761421
Fe       3.99132000       4.46692000       6.09268000      -0.21521200      -1.96607600      -0.25853400      -0.54876925      -2.12102631      -0.51602330
Fe       4.03283000       6.20484000       2.50717000       0.32509400      -1.83048700       1.07686200       0.34303319      -1.86418012       1.07309137
Fe       2.62183000       8.12097000       1.25125000      -5.45108600      -1.04608100      -0.88869000      -5.36290052      -1.27288851      -0.55127257
Fe       2.34208000       7.49949000       3.33705000      -1.45221900       0.10179900       1.96325000      -1.36429248       0.21313080       2.02193176
Fe       4.67554000       0.98699000       8.35162000       1.97529500       0.95938300       0.07305200       1.87319661       1.26090095       0.32590164
Fe       4.68615000       2.28426000       1.60336000       6.03713100       4.39249100       1.56082500       6.84255523       4.41266813       1.02162757
Fe       4.95897000       4.28949000       0.91503000       1.24258400       3.77490300      -1.07876200       1.07200627       3.86284772      -1.43643744
Fe       5.62605000       3.84953000       3.25301000      -4.56775200       3.43217100       2.09526400      -4.61578824       3.36925818       1.74732923
Fe       5.63153000       5.70233000       4.67966000       0.04558900       0.36352900      -0.74034800      -0.00022465       0.21216955      -0.66422131
Fe       5.00954000       6.14620000       6.89198000       4.51113600      -2.60361300       1.43664400       3.96853786      -2.27884799       1.29944679
Fe       5.34723000       7.32984000       0.56425000       3.41130600      -7.55812200      -7.44238600       3.38072832      -7.07401518      -7.35753228
Fe       4.57141000       8.20633000       1.67615000      -2.51651100       6.57056000       9.11650700      -2.51864456       5.56011764       9.29045327
Fe       5.67084000       7.83697000       6.02451000      -0.02983000       3.57151200       0.33120700      -0.07901574       3.59321106       0.07912436
Fe       7.65837000       1.05332000       0.64336000       1.95813700       2.93603900      -3.62028800       1.63175423       2.60418819      -3.58913807
Fe       7.23579000       1.49494000       3.62009000       0.88838800      -1.50203300       3.00240400       0.80860017      -1.40155623       3.09677639
Fe       6.96409000       1.59543000       6.70415000       0.40175100      -2.57633900      -0.54943900       0.39811457      -2.51432128      -0.41449860
Fe       6.97946000       3.05325000       2.27831000       3.01329100      -2.85779700      -7.80747400       2.54476882      -3.41380718      -6.83624117
Fe       7.05854000       3.62734000       7.13255000       0.94483300       2.42104600       2.56329500       0.97918247       2.53608736       2.20922026
Fe       7.47490000       4.49325000       0.92243000      -3.13561000       0.06366500       0.11142200      -2.89610108       0.49403409      -0.48288213
Fe       7.76499000       5.40883000       4.05655000       3.42051700      -2.49950500       1.10150300       3.60789372      -2.46339477       1.12056239
Fe       6.91686000       6.16423000       2.38917000      -4.34160700       0.52717700      -3.24358900      -4.60902770       0.41530630      -3.05907440
Fe       7.31773000       7.39473000       4.73130000      -1.41907300       3.06948200       1.38572900      -1.46423933       2.70931271       1.80332811
B        1.63947000       5.44017000       2.85377000      -1.37965300       1.67099600      -0.34434500      -1.69109257       1.82569043      -0.56245439
B        3.47444000       1.29905000       1.69513000      -6.04542900      -7.46227000      -1.52467000      -6.34827655      -7.49145763      -1.53625479
B        2.31673000       1.42955000       3.77944000      -1.85652800      -2.14982900       3.21956500      -1.83387171      -1.99150922       3.55994597
B        3.17088000       0.01260000       8.16689000      -2.14308300      -0.12737100      -3.63430700      -1.78647227       0.07946903      -3.84864781
B        2.48887000       2.23189000       2.44876000      -1.30373000       3.96631200      -0.94871100      -0.79360211       3.92701548      -0.80840667
B        3.55016000       3.21990000       0.17024000       2.13469500      -3.52588700       0.23974700       1.94203414      -3.27286502       0.79951912
B        3.12966000       3.07291000       4.24572000      -6.99085300       0.34377600      -0.16579100      -7.29788895       0.10081391      -0.03978642
B        2.38358000       5.95301000       6.34325000       2.25901800      -8.76611800      -6.31465800       2.18282080      -8.92495489      -6.55739598
B        4.46260000       2.62992000       4.23823000       7.08507900      -1.75449200       0.40993300       6.95211295      -1.71419640       0.26460604
B        7.51183000       3.59374000       3.85724000       1.49621300      -1.20378300       3.39561400       1.57335000      -0.94657276       3.41736968
Si       0.50050000       1.66927000       5.10425000      -1.02554400      -2.67263500       2.61432900      -0.81782373      -2.66937929       2.46217067
Si       0.41923000       4.50138000       8.15701000       0.82744200      -0.47721100      -2.57541600       1.04760947      -0.20041736      -2.82664668
Si       2.90131000       4.25049000       1.93860000       2.71957100       0.04497600      -0.88170100       2.92857491       0.12951736      -1.22543708
Si       3.74353000       6.85388000       5.19884000      -1.20766000       1.80214700      -2.20114300      -0.95239233       1.95520478      -2.40871712
Si       3.54209000       6.47938000       8.21357000      -0.45014500      -1.75854100       4.24377300      -0.39483817      -1.95730542       4.64812995
Si       4.55252000       1.74669000       6.40118000       0.28733400       0.20348600      -1.69136000       0.10817159      -0.06064673      -1.46078667
Si       5.87020000       3.30923000       5.41310000       1.93974000       0.55942400      -1.14043100       1.98902990       1.01618765      -0.77511504
Si       6.68392000       0.09389000       2.07850000      -2.78148600      -1.30329400       2.70552900      -2.54294625      -0.90472882       2.65782391
Si       7.30980000       7.36953000       0.08595000       4.18267400      -0.22507900      -1.67891000       4.17990644      -0.53731742      -1.89023536
Si       8.41387000       7.50606000       2.97540000       5.08859000       1.78741200      -0.88875800       5.38658373       1.90968792      -0.67764901
54
Lattice="8.579999685 0.0 0.0 0.0 8.579999685 0.0 0.0 0.0 8.5799996" Properties=species:S:1:pos:R:3:REF_forces:R:3:MACE_forces:R:3 config_type=Fe34B10Si10 REF_energy=-359.84864784 MACE_energy=-359.80529156636163 pbc="T T T"
Fe       0.39531000       2.37288000       0.87042000       3.27925500       2.43832800      -1.60261100       3.08315796       2.67285895      -1.96125611
Fe       0.75383000       1.65209000       3.11094000       1.30783500      -0.34615400      -0.09267000       0.83963541      -0.47609871       0.40960149
Fe       1.33201000       3.79282000       7.26231000      -2.40668100      -1.18131200       0.32245500      -2.37990805      -0.95288168       0.01174501
Fe       0.64436000       4.41396000       2.97573000       2.42004200      -2.26182600       0.38963900       2.31321760      -1.85321072       0.15352889
Fe       0.14751000       6.42079000       3.51005000      -3.07002100       1.32407200      -2.30638400      -2.57971380       1.11451912      -2.21846784