18
Lattice="6.5 0.0 0.0 0.0 6.5 0.0 0.0 0.0 6.5" Properties=species:S:1:pos:R:3:REF_forces:R:3:MACE_forces:R:3 config_type=Fe12B3Si3 REF_energy=-122.60259194 MACE_energy=-126.63015216464521 pbc="T T T"
Fe       5.09292000       4.71692000       1.17657000      -0.43533200      -0.51500600      -0.95471400      -0.29942880      -0.35756141      -0.37360440
Fe       5.77166000       0.42197000       5.05407000      -0.02893800      -0.71596500       0.04838100      -0.08527309      -0.78222179       0.31130081
Fe       5.13387000       2.35523000       3.84734000      -1.89765700      -0.10869600       1.91264400      -1.84387239       0.14775459       1.29493818
Fe       4.28586000       4.44305000       5.45001000       0.16330100      -0.45505100      -0.78988200       0.20747449      -0.18528965      -0.70618809
Fe       1.94340000       5.71942000       3.43498000      -0.80849200       0.79590200      -1.52941800      -0.71694807       0.91796548      -1.61818688
Fe       2.23403000       5.41245000       5.55948000       0.02203500       1.10579100       1.46023700      -0.07971032       0.53018976       1.36069452
Fe       6.31948000       3.13845000       2.34683000       1.54883600       0.55665100      -0.85220000       1.16286700       1.02233631      -0.83812971
Fe       4.04920000       1.84413000       0.54644000       0.54070000       0.26521300       0.10478400       0.53597392       0.13551595      -0.00111223
Fe       6.03875000       2.85985000       6.10045000       0.55348700      -0.00632300       0.45841600       0.81676834      -0.21153935       0.44642731
Fe       0.58685000       1.29742000       1.31584000      -2.59691900      -1.19344800       0.74087100      -2.53361655      -1.42590694       0.55092469
Fe       4.91298000       0.15320000       2.42984000      -0.06700500       1.23581300      -0.27632200       0.05455304       0.92630136      -0.28023335
Fe       1.93111000       3.24513000       0.71062000       0.70722800       0.46984000      -0.28427000       0.40007242       0.68874562      -0.22766663
B        2.37195000       1.25222000       1.40537000       1.65160600      -0.35926700       0.26079300       1.80005291      -0.18304544       0.40026537
B        0.08066000       0.99775000       3.29118000       0.16566700      -0.31648400      -0.67714100       0.38277198      -0.34093488      -0.43500687
B        3.93898000       5.93711000       3.88036000      -0.16859400      -0.37277700       1.63812600      -0.31849115      -0.51309841       1.63016092
Si       1.06372000       3.69612000       4.51440000      -0.53709400      -0.15329500      -0.11394200      -0.29474040      -0.11796446      -0.42393971
Si       1.71394000       1.26695000       5.84256000       0.03292600      -0.14907500      -1.01285500       0.16015286      -0.16198823      -0.98023475
Si       3.33060000       3.91426000       2.72453000       1.15424600      -0.08382500      -0.13350900       0.65139381      -0.08925851      -0.11040918
18
Lattice="6.5 0.0 0.0 0.0 6.5 0.0 0.0 0.0 6.5" Properties=species:S:1:pos:R:3:REF_forces:R:3:MACE_forces:R:3 config_type=Fe12B3Si3 REF_energy=-121.31244081 MACE_energy=-125.95835376360284 pbc="T T T"
Fe       1.54567000       5.09347000       2.96054000      -0.05755400       0.22926400       0.19630700      -0.11809257      -0.16992845       0.15879979
Fe       5.37031000       4.33464000       3.33914000      -0.58258500       0.74000300       1.13110700      -0.47670871       0.46554001       0.74348931
Fe       3.42840000       1.36213000       4.29281000      -1.01656700       0.10268700       0.03844400      -1.09766482       0.05527922       0.28745238
Fe       3.57265000       3.88513000       0.65516000       0.30850200       1.33476100       1.08278900       0.54918327       0.96518899       0.89039431
Fe       1.41689000       0.59785000       1.78345000       0.74253900       0.82871700       0.20224800       0.70644691       0.84598700       0.50476709
Fe       0.97121000       3.19177000       4.49857000      -0.23778700       0.31663600       0.49523500      -0.32447614       0.30279526       0.26560846
Fe       0.10960000       3.90804000       1.55392000       0.39793300      -0.41835000      -0.70952800       0.17242140      -0.49041800      -0.52351986
Fe       3.14656000       3.96526000       4.20821000       0.80956500      -0.29266500       1.03843300       0.76340253      -0.26327850       0.71039401
Fe       5.48304000       3.37518000       6.03157000       0.56050000      -0.52763000      -1.40935100       0.17349888      -0.46046767      -0.94016649
Fe       3.88217000       0.69368000       1.82654000      -1.75284600       0.65177800      -1.13448000      -1.19212001       0.40062266      -1.24423009
Fe       1.77093000       2.74360000       0.38456000      -0.62318100      -1.15549800      -0.16030100      -0.69721289      -1.01687231       0.00683175
Fe       6.43892000       5.63221000       5.07465000      -0.92523200      -0.35829100      -0.46582300      -0.47062723       0.01724171      -0.18214819
B        4.32987000       5.76823000       4.64532000      -0.20450600      -0.71291100      -0.34975500      -0.09835696      -0.27961684      -0.07371957
B        4.86401000       0.31075000       3.35677000       1.37279600      -1.05687500       1.71697400       1.11151143      -0.97193656       1.21826169
B        1.72795000       2.62743000       2.69252000       0.25169800      -0.16894100      -0.71378200       0.20061258       0.11731443      -0.41844454
Si       5.92922000       1.16658000       0.91137000       0.17077100       0.77306600      -0.40821800      -0.36454331       0.82624529      -0.84036965
Si       1.55137000       0.52682000       5.95862000       0.76711600       0.45167400      -0.21249400       0.84825607       0.34004258      -0.38657810
Si       0.23429000       1.22377000       3.73067000       0.01883900      -0.73742700      -0.33780600       0.31446957      -0.68373882      -0.17682229
18
Lattice="6.5 0.0 0.0 0.0 6.5 0.0 0.0 0.0 6.5" Properties=species:S:1:pos:R:3:REF_forces:R:3:MACE_forces:R:3 config_type=Fe12B3Si3 REF_energy=-119.7015825 MACE_energy=-124.64637899526113 pbc="T T T"
Fe       0.61406000       3.48190000       4.00853000       0.05000800       0.69203900      -0.65899000       0.10381112       0.43907247      -0.58421891
Fe       4.97626000       0.76382000       4.44673000      -0.35037700       1.47026600       0.84275300      -0.27996331       1.10583710       0.65904214
Fe       3.34553000       4.74129000       4.52266000      -0.04235300       0.38767900      -0.51635200       0.17037793       0.59216470      -0.57250582
Fe       2.72320000       4.03412000       2.53731000       0.14210100      -0.10011400      -0.31343200       0.66750926       0.03684962      -0.18171558
Fe       0.83336000       4.50867000       1.52689000      -1.17306600       1.62258800       0.10072700      -1.42134815       1.37937002      -0.13628722
Fe       0.92240000       1.42661000       5.10358000       0.70633700       0.51501800       0.05106700       0.46662043       0.87662769      -0.12273037
Fe       5.37460000       5.19700000       3.85308000       1.71590800      -0.94477900      -1.05904100       1.48313394      -0.67153495      -0.93543525
Fe       1.59919000       5.65956000       5.19133000      -1.80142700       0.34157800       0.33855300      -1.70999535       0.01025124       0.27307629
Fe       1.42206000       0.28899000       2.84488000      -0.46217700      -0.05934400      -0.48497300      -0.66096188      -0.31784729      -0.72758519
Fe       0.14336000       0.29234000       0.36155000       0.19959000      -0.37895800       0.35421900       0.37379236      -0.13080405       0.41411496
Fe       4.01865000       3.23019000       5.76943000       0.89386800      -0.42884300       1.55421800       1.14503803      -0.19961503       1.49065662
Fe       5.37081000       1.08656000       2.03514000      -0.92791000      -0.01223000       0.80912400      -0.70349935       0.18141799       0.78214075
B        2.67090000       1.02966000       4.10204000       1.31464700      -0.52838700       0.81909000       1.05574643      -0.44257805       0.70198059
B        3.04001000       2.23804000       1.93097000       0.69846800      -0.94741100       0.43315700       0.52995475      -1.01752743       0.35267171
B        3.45335000       1.43986000       5.58522000      -0.99169000      -0.73456400      -1.02779300      -1.03643495      -1.00264604      -0.51435968
Si       5.04048000       3.39294000       2.10200000      -0.29496400       0.38301900       0.21545600      -0.13112025       0.54996766       0.17292145
Si       5.63077000       4.87350000       6.41151000      -0.48492700      -0.59127500      -1.23672100      -0.53291910      -0.65448775      -1.21130362
Si       0.92620000       2.28662000       1.33607000       0.80796400      -0.68628200      -0.22106200       0.48025810      -0.73451790       0.13953714
18
Lattice="6.5 0.0 0.0 0.0 6.5 0.0 0.0 0.0 6.5" Properties=species:S:1:pos:R:3:REF_forces:R:3:MACE_forces:R:3 config_type=Fe12B3Si3 REF_energy=-121.85787139 MACE_energy=-126.01396109149522 pbc="T T T"
Fe       3.74522000       1.93951000       3.03104000       0.15344600      -1.30313800       0.57095700      -0.36310673      -1.02707916       0.54077436
Fe       5.13632000       4.25308000       0.92736000       1.61810900       1.29717800      -0.09026100       1.37129371       0.72315557       0.08431008
Fe       2.38772000       3.64647000       1.36253000       0.34718900       0.24437500       0.26687600       0.28036819      -0.07782357       0.32749054
Fe       4.52682000       2.03507000       0.88629000       0.10309200      -0.28281500      -0.32066600       0.21221834      -0.02865756      -0.63960023
Fe       0.72889000       5.71397000       0.71694000       0.39426700      -0.05723500      -0.70851200       0.16735466      -0.10155010      -0.57350222
Fe       1.28004000       2.60278000       3.63876000      -0.05139800      -0.26602100      -0.17015500       0.09688955      -0.24354751      -0.32175229
Fe       4.25735000       4.17533000       2.99842000      -0.51788500      -0.00171000       1.38499700      -0.36850480       0.48894648       1.05718139
Fe       5.17853000       0.17226000       2.33142000       0.65502400      -0.75404400      -0.07820000       0.62834828      -0.67651217      -0.36020264
Fe       3.30921000       2.19924000       5.35160000       0.29955200      -0.43084800       0.01416400       0.17263613      -0.53501465       0.28376764
Fe       5.15839000       5.82552000       4.66434000      -0.09919600       0.87520900       0.22737800      -0.03280091       0.81141007       0.33070713
Fe       0.99579000       3.32661000       5.82380000      -0.58192300      -0.10817300       0.50157800      -0.20471914       0.05260229       0.79421979
Fe       3.66613000       4.36288000       5.83709000      -1.35170800       0.84645900      -0.30712200      -0.83304292       0.81941281      -0.47646181
B        2.84060000       0.39334000       4.32751000      -0.35193100      -0.06164300      -0.39291200       0.12627196       0.18933272      -0.22083691
B        1.64536000       1.24443000       5.37304000      -0.64125300       0.06658900       0.28190300      -0.83246978       0.15538930       0.28406085
B        5.94501000       1.69280000       3.57914000      -0.18823400      -0.20229800      -0.92962600      -0.41135705      -0.39264618      -0.60597639
Si       1.95275000       4.93141000       4.29137000       0.04269600       0.05062900      -0.61354000      -0.11783731      -0.23539615      -0.72922578
Si       1.17675000       0.50357000       2.60680000      -0.03007500       0.17892800       0.39125200      -0.17505046       0.12348993       0.33852286
Si       3.01916000       0.15396000       0.36058000       0.20022900      -0.09144200      -0.02811200       0.28350829      -0.04551214      -0.11347636
18
Lattice="6.5 0.0 0.0 0.0 6.5 0.0 0.0 0.0 6.5" Properties=species:S:1:pos:R:3:REF_forces:R:3:MACE_forces:R:3 config_type=Fe12B3Si3 REF_energy=-123.17032223 MACE_energy=-127.04291003402724 pbc="T T T"
Fe       2.06128000       1.35192000       5.56271000       0.18198700      -0.16204600       0.32079200       0.25009673      -0.26447682       0.23785564
Fe       0.20628000       0.74352000       0.47533000      -0.01212900      -1.80057200       0.81247600      -0.44103032      -2.07842308       0.98000419
Fe       4.21352000       4.38008000       1.14975000       0.22760200      -0.36679400      -0.09969700       0.53020081      -0.77524066       0.10581557
Fe       2.54249000       3.63216000       4.72939000       1.19327500      -0.66455700       0.07221400       1.16666657      -0.39371402       0.05431884
Fe       3.83205000       5.53820000       4.79909000       0.51612300       1.20124600       0.12884600       0.32958550       1.04208924       0.03230062
Fe       5.42994000       1.39640000       2.52309000      -0.42467600       2.12164400      -0.14102300       0.10383522       2.11427752      -0.13363586
Fe       5.04777000       3.40995000       5.34287000      -0.21348800       0.67090800       0.05014900       0.07369101       0.87965893       0.03087292
Fe       4.02538000       0.24009000       0.60478000      -0.67052300       0.23330400      -0.82188900      -0.51532619       0.81183112      -0.66547417
Fe       5.70945000       1.27912000       5.05205000      -0.15485500      -0.64748300      -0.75514100      -0.09855234      -0.70509399      -0.90255809
Fe       1.92991000       4.99192000       1.74667000       0.17963600      -0.15990000       0.40814400      -0.29787343       0.04734298       0.55930624
Fe       1.43771000       1.03607000       3.08283000      -1.21763900       0.01257600       0.14875200      -1.30852000      -0.22282990       0.13091769
Fe       0.86801000       4.47220000       6.13084000      -0.41825400       0.29579200      -0.15826700      -0.56420691       0.18054998      -0.02286792
B        2.11019000       0.52917000       1.24201000       0.09094000       0.18445000      -0.68560600       0.21319495       0.23252114      -0.77215352
B        4.85706000       2.12229000       0.43616000       0.59367600      -0.04809400       0.32134000       0.66841591       0.03408312       0.30855882
B        4.77818000       6.22659000       2.28373000      -0.06851400      -1.72155000       0.50330900      -0.17476620      -2.61053320       0.29538777
Si       3.22130000       2.33163000       2.83281000       1.18133600       0.37223400      -0.18261100       1.07709145       0.75236406      -0.25059408
Si       0.66472000       2.69680000       1.28352000       0.35904800       1.34635600       0.36533200       0.48303606       1.42564794       0.29422894
Si       0.57749000       3.56144000       3.74467000      -1.34354500      -0.86751400      -0.28711800      -1.49553881      -0.47005433      -0.28228359
18
Lattice="6.5 0.0 0.0 0.0 6.5 0.0 0.0 0.0 6.5" Properties=species:S:1:pos:R:3:REF_forces:R:3:MACE_forces:R:3 config_type=Fe12B3Si3 REF_energy=-121.03497159 MACE_energy=-125.39181493895984 pbc="T T T"
Fe       1.44158000       5.30001000       3.73990000       0.80024600       0.97127900      -0.80130000       0.35791279       0.73750772      -0.86886424
Fe       4.76448000       5.46703000       0.81860000      -0.12557700      -0.35798900      -1.48527900       0.87232469      -0.66374238      -0.74167364
Fe       4.93607000       4.01866000       4.50215000      -0.53630200      -0.06755300       0.28519800      -0.49625584      -0.25806401       0.15105085
Fe       2.54967000       4.74564000       1.15826000      -0.30791600      -0.46889400      -0.15805100      -0.76813048      -0.39749765      -0.57233481
Fe       0.34169000       3.61061000       2.35881000      -0.53529500      -0.58811100       1.00699100      -0.48018812      -0.04546455       0.87537536
Fe       2.35204000       1.58777000       2.07914000       0.57705800      -0.58459200       1.04343400       0.83356996      -0.67120378       0.85018571
Fe       0.62223000       1.04055000       5.16059000      -1.24617800      -0.24006500      -0.54335800      -1.24688433      -0.29511489      -0.27490986
Fe       2.51060000       2.14408000       4.43449000       0.07351100       1.18492700       0.27387000       0.19387390       1.20850206       0.14458461
Fe       0.54955000       4.27737000       5.47880000       1.11038600       0.55751700       0.11547900       1.03222183       0.80668921       0.00889346
Fe       3.71982000       5.75480000       3.16466000       0.38624700       0.77644400       0.53907400       0.38327475       0.77719197       0.36182773
Fe       1.21496000       2.60205000       0.49559000       0.91097100      -0.21628300      -1.40025700       0.51486703      -0.48016916      -1.28117784
Fe       4.33544000       3.44997000       2.32066000      -0.11113800      -1.13838700      -1.07293100      -0.39886553      -0.97005084      -0.79896517
B        3.57517000       5.19498000       5.67296000       0.02909700       0.11803400      -0.79539700      -0.02590274       0.37803520      -0.49289303
B        3.19573000       2.72151000       0.39559000       0.66935000      -0.21215000       0.29819600       0.72954193      -0.14177990       0.36488279
B        5.29133000       1.80166000       3.36631000      -0.61772000       0.64460000       0.91903000       0.08004381       0.65934742       0.61539377
Si       4.71818000       1.13888000       1.41442000      -0.10426200       0.47055800       1.10054900      -0.38748360       0.36689359       0.92559071
Si       4.28766000       1.00056000       5.32612000       0.59498300      -0.65540400      -0.44130900       0.68698205      -0.70880093      -0.32786434
Si       5.54384000       3.13095000       0.10152000      -1.56746300      -0.19393100       1.11606100      -1.88090208      -0.30227909       1.06089792
18
Lattice="6.5 0.0 0.0 0.0 6.5 0.0 0.0 0.0 6.5" Properties=species:S:1:pos:R:3:REF_forces:R:3:MACE_forces:R:3 config_type=Fe12B3Si3 REF_energy=-121.19386358 MACE_energy=-125.56130964065855 pbc="T T T"
Fe       5.14122000       2.95219000       5.73762000       1.07543100      -1.06473800       0.02092700       0.66873225      -0.58811146       0.06986515
Fe       3.44786000       4.68004000       0.56712000      -1.37847800      -1.17368900      -1.22189300      -1.12556165      -1.21730124      -0.82185233
Fe       2.82511000       0.89193000       5.14374000       0.13259800       0.26355500       0.40255800       0.20274517       0.35032537       0.33141870
Fe       5.03673000       0.78459000       3.29286000      -1.26774300      -0.96440500       0.08926900      -0.92766760      -0.98753378       0.02245749
Fe       0.04417000       2.47999000       3.55018000       0.57964100       0.99759000      -0.45241400       0.45116579       0.97690799      -0.42374210
Fe       3.80021000       2.12637000       1.07746000       0.18867900      -0.22764200      -0.16605100       0.12560094      -0.03042250      -0.24786791
Fe       0.53180000       4.23439000       5.25038000       0.13821800       0.93416200      -0.11674800       0.24343642       0.80235586      -0.34911639
Fe       5.29502000       5.19686000       1.57483000       0.63888900      -0.01824700       1.31027900       0.69448456       0.17537771       1.36370729
Fe       4.81829000       5.67816000       5.38797000       0.86574200       0.53683900       0.64982300       0.44833239       0.36891782       0.81858847
Fe       0.56712000       1.81843000       0.78586000       0.14808100       0.22443800       0.34380200       0.33545976       0.26478823       0.31202964
Fe       3.21410000       3.62554000       4.76333000      -0.48471200       0.05504400      -0.37129100      -0.36532806       0.08263324      -0.09486778
Fe       2.59511000       0.04657000       1.62822000      -0.15086800       0.20181900      -0.19923600      -0.26040931       0.01642435      -0.13883714
B        1.70005000       4.09276000       3.58297000       0.50063800      -0.74222000       4.89755200       0.64017952      -0.53891524       4.97140234
B        0.43268000       5.13544000       0.50731000      -0.62762600       1.39885300      -1.30398100      -0.66303362       1.22400587      -1.29707673
B        5.33026000       4.94544000       3.73632000       0.22606000      -0.48056500      -0.66320000       0.14191228      -0.55068872      -0.88988745
Si       2.28782000       2.00516000       2.88410000       0.36394600       0.12179600       0.89171700       0.34847594      -0.07166659       0.87840561
Si       1.34690000       4.20152000       1.89580000      -0.46324100      -0.07460600      -4.35928800      -0.57538312      -0.28445265      -4.51507954
Si       0.33802000       0.64631000       5.13835000      -0.48525500       0.01201700       0.24817700      -0.38314166       0.00735573       0.01045267
18
Lattice="6.5 0.0 0.0 0.0 6.5 0.0 0.0 0.0 6.5" Properties=species:S:1:pos:R:3:REF_forces:R:3:MACE_forces:R:3 config_type=Fe12B3Si3 REF_energy=-121.83631974 MACE_energy=-126.21618690222496 pbc="T T T"
Fe       2.32189000       0.53919000       4.43628000       0.62348700       0.62161200      -0.30037500       0.70395110       0.34402524      -0.27481924
Fe       0.85962000       3.43397000       4.87265000      -0.12660300       0.92813600      -0.14204200       0.19562927       0.82215805      -0.06490409
Fe       3.14478000       3.12586000       5.02575000       0.59721000      -0.57204800       0.02419900       0.48976529      -0.61590325       0.28388082
Fe       5.60986000       1.49763000       1.76525000      -0.15598800       0.54195100       0.25919200       0.13927208       0.56076007       0.30929997
Fe       1.35689000       1.02230000       1.46682000      -0.86025900      -1.50913200      -0.02236000      -0.86414884      -1.30645613       0.13522620
Fe       1.53652000       5.21131000       2.91051000       0.14684300       0.83240900       0.92372000      -0.20127087       0.99306477       0.40460985
Fe       5.42176000       2.41204000       4.26359000      -0.63460300      -0.19320800      -0.86948000      -0.75111864      -0.33088729      -0.80213818
Fe       2.69083000       2.61526000       0.85844000       0.58099200       0.46413400      -0.42101400       0.67961005       0.57945575      -0.26758087
Fe       3.69565000       0.41570000       1.52873000      -0.38863400      -1.79496800       0.36436300      -0.83813874      -1.47343023       0.25758901
Fe       5.29642000       0.71728000       5.92537000      -1.13878800       0.21021100       0.33601900      -1.06016616       0.19314741       0.29958770
Fe       2.43404000       4.91723000       0.69122000      -0.67719900       0.42452500      -0.50222800      -0.79277009       0.31004333      -0.80058029
Fe       0.38184000       3.41911000       2.21740000      -0.05622500      -0.60860100      -0.28154900       0.03949090      -0.34020604      -0.51665533
B        0.60495000       2.82168000       0.18824000       0.45495900      -0.82411900       1.12072500       0.27949585      -0.86562048       1.35542855
B        4.46032000       5.11021000       0.86305000      -0.16597900       0.94437700      -0.17078000      -0.25704147       0.87681994      -0.20844845
B        4.50224000       0.61436000       3.35420000      -0.21081700       0.21979200       0.95013200      -0.05190207       0.32199745       0.83858007
Si       0.41559000       5.76097000       5.42597000       1.25807400      -0.80112100      -0.45097400       1.39351500      -0.53590020      -0.45829874
Si       5.04192000       3.28673000       0.17892000       0.12615100       0.01238900      -0.22951000       0.05086899      -0.40171954      -0.33060223
Si       3.63769000       4.96485000       3.77806000       0.62737900       1.10366300      -0.58803800       0.84495835       0.86865116      -0.16017474
18
Lattice="6.5 0.0 0.0 0.0 6.5 0.0 0.0 0.0 6.5" Properties=species:S:1:pos:R:3:REF_forces:R:3:MACE_forces:R:3 config_type=Fe12B3Si3 REF_energy=-121.52509482 MACE_energy=-125.60696242029888 pbc="T T T"
Fe       5.35369000       5.79500000       1.92697000       0.93009700       0.21272200       0.30334600       0.85196017       0.55035786       0.12689462
Fe       2.76775000       2.65119000       2.12707000      -0.32421800      -0.48392200      -0.17557400       0.01280513      -0.21455022      -0.16890173
Fe       0.95782000       3.82419000       5.40578000       0.10971500      -0.17899400      -2.04142600      -0.12726644       0.00619927      -1.91457095
Fe       0.03218000       4.37962000       0.68550000       0.11657700      -0.41259800       0.85513400      -0.11201794      -0.37614686       0.51101139
Fe       1.84755000       0.88889000       3.81096000      -1.44375300      -0.68888000       0.86572800      -1.57309772      -0.60625288       0.99715077
Fe       1.16808000       4.93779000       2.52478000      -0.28262200       0.22668300       0.83147000      -0.38543687       0.12204245       1.24882867
Fe       4.57564000       3.78620000       5.52286000       0.47796700       0.02734200      -0.30762900       0.52292354       0.36300500      -0.50255418
Fe       1.78348000       1.76727000       0.19912000      -0.26827800       0.03695300      -0.74819700      -0.51826091      -0.63656455      -0.61032362
Fe       4.14268000       1.27653000       5.44637000       0.32298300       0.47804900       0.87136900       0.32779873       0.33758815       0.67113235
Fe       0.39350000       2.02322000       2.40882000      -0.76609100       0.51871000      -0.97730800      -0.81841325       0.56189113      -0.81579063
Fe       4.81568000       2.96526000       1.14778000      -0.14924600       1.24611400       0.04356300      -0.16594469       0.66924877      -0.00092514
Fe       3.84539000       0.30930000       3.37137000       0.29154400       0.59907800       0.00228600       0.43157769       0.15651721       0.09875047
B        0.56106000       0.29730000       1.37744000       0.44563300      -0.18325700       0.09294600       0.59528843      -0.18740893      -0.15280962
B        4.70692000       1.17670000       1.77222000       0.30524300      -0.18357100       0.58365200       0.36636484       0.09807207       0.49294909
B        5.38157000       1.57638000       3.57119000      -0.67590100      -0.19578700       0.11893400      -0.49331166      -0.16698896       0.32675320
Si       1.82718000       5.79703000       6.49835000       0.39538000       0.26005200      -0.26180200       0.39055603       0.53104234      -0.35725811
Si       3.31810000       4.97491000       2.09981000       0.38303800      -1.16180900      -0.78364900       0.33055707      -1.26922289      -0.56598660
Si       2.73378000       2.94839000       4.34012000       0.13193200      -0.11688600       0.72715900       0.36391786       0.06117105       0.61565004
18
Lattice="6.5 0.0 0.0 0.0 6.5 0.0 0.0 0.0 6.5" Properties=species:S:1:pos:R:3:REF_forces:R:3:MACE_forces:R:3 config_type=Fe12B3Si3 REF_energy=-121.02444435 MACE_energy=-125.35578472701388 pbc="T T T"
Fe       1.39149000       2.20308000       5.17931000      -1.09901500       0.96004600       0.36173300      -1.28463043       0.80924924       0.37065886
Fe       3.62747000       4.68659000       1.02510000      -0.06982100      -3.26377800      -2.89944800       0.11933854      -3.09335725      -2.90791402
Fe       1.80395000       3.40407000       2.57062000       0.23159400      -1.19456800      -0.45276000       0.54082448      -1.06999879      -0.14648529
Fe       2.94213000       0.60236000       5.71573000       0.15339300      -0.69866300       0.64874700       0.23945101      -0.74443079       0.81698487
Fe       5.38115000       2.52906000       6.43321000      -0.23682700       0.12156600      -0.19922500      -0.05732150       0.08199489      -0.26849967
Fe       0.12195000       6.11226000       5.45936000      -0.39712500       0.65309400      -0.05083800      -0.14522140       0.70353206       0.01837560
Fe       4.34835000       1.98723000       2.40957000      -1.01480500       0.74572900      -0.29346500      -0.85046163       0.90446204      -0.11287896
Fe       1.53424000       4.10029000       0.18089000      -0.42864200       1.56111100      -0.02192200      -0.59203671       1.19274037      -0.22036050
Fe       0.31466000       0.53942000       1.14637000       0.10838100       1.15710500      -0.20059100      -0.06726489       0.92171319      -0.42073973
Fe       0.47952000       5.25453000       2.73419000      -0.30982000      -0.02579600      -0.14735200      -0.23248334      -0.07124923      -0.21113014
Fe       4.50027000       0.31801000       0.96733000       0.32284000      -0.13474100      -0.50344800       0.02079754      -0.29529676      -0.65319533
Fe       1.70353000       0.42976000       3.75274000      -0.32967600       0.43159600      -0.88117700       0.08975586       0.34110689      -1.03488577
B        6.18518000       4.55381000       4.41125000      -0.17318900      -1.03892600       0.51683300      -0.28909027      -0.86496258       0.18019904
B        2.12650000       0.37704000       1.77055000       1.33709500      -0.20335800      -0.64256200       1.37600486      -0.29110878      -0.39660816
B        0.73517000       2.44792000       0.79322000       0.36639400      -0.14615100       0.11805600       0.36625735      -0.02266239       0.38635858
Si       3.51439000       5.61877000       2.79115000      -0.45728700       1.49076800       4.26033400      -0.60462760       1.67676333       3.99612794
Si       4.26138000       4.96562000       5.31398000       0.76080200       0.01330700      -0.27175900       0.56845623       0.14207463      -0.13527953