54
Lattice="8.579999685 0.0 0.0 0.0 8.579999685 0.0 0.0 0.0 8.5799996" Properties=species:S:1:pos:R:3:REF_forces:R:3:MACE_forces:R:3 config_type=Fe34B10Si10 REF_energy=-352.89092233 MACE_energy=-353.2830389037873 pbc="T T T"
Fe       1.46495000       0.71583000       1.12880000       3.73230100      -3.41607500      -3.76209700       3.73674904      -3.48171689      -3.65141372
Fe       0.56244000       2.07917000       1.96452000      -3.31290700       4.06628900       2.54508600      -3.36537589       4.10658843       2.39948506
Fe       0.86636000       2.12990000       5.00906000     -10.85567700      -2.87102900      12.20968700     -10.92461672      -2.93432883      12.19066527
Fe       0.24697000       2.61233000       7.83061000      -0.37811800      -2.03816900      -0.08744800      -0.33265902      -2.08492471       0.11504374
Fe       0.35437000       4.66395000       8.16447000      -1.30300600       1.62250000       0.84662400      -1.36761304       1.70292974       0.81842782
Fe       0.83543000       8.00840000       3.01492000       5.54921000      -2.55787300       0.52513800       5.56366680      -2.64531206       0.45077497
Fe       2.03952000       7.84431000       6.63062000      -4.28706100       1.82495200      -1.68802900      -4.02151581       2.03604445      -1.69284735
Fe       3.34318000       0.11090000       2.96052000      -0.46571400      -0.35056300       0.37864800      -0.47937070      -0.18153931       0.48267674
Fe       3.26317000       2.11539000       1.48699000      -3.47884800      -0.03222100       0.61542300      -3.31591064      -0.27607488       0.21796321
Fe       4.14313000       2.75755000       3.31065000      -0.71378000      -2.73118300       1.93004800      -0.68622254      -2.46882565       1.89934489
Fe       2.55051000       2.67374000       7.19710000      -2.55215900      -0.93589000       1.77261600      -2.33499015      -1.03563792       1.70942629
Fe       3.61327000       2.86500000       5.46497000       1.55763200       0.20514300      -0.56676300       1.46207643       0.33028288      -0.27306479
Fe       2.62400000       4.72550000       1.39174000      -1.08585200      -1.19598700       0.59645400      -1.36622361      -0.93211697       0.70638914
Fe       2.20317000       5.21693000       3.87451000      -3.92870900      -4.38103900      -4.92199500      -3.83965392      -4.34047742      -4.99988219
Fe       3.93082000       4.37819000       8.08226000       1.07616800       0.44807800      -0.99700400       1.02085009       0.26345062      -1.06214155
Fe       2.44961000       7.01753000       1.08943000       0.32119000      -1.55635000       3.27006500       0.45351498      -1.63684831       3.33278745
Fe       3.02500000       6.15780000       5.08193000      -1.08486800       1.64126100       3.95415400      -0.43162144       1.57157613       3.90550368
Fe       5.77712000       0.44616000       0.16142000      -2.43333700       0.07175000       4.13474700      -2.41416907       0.43373054       4.18942441
Fe       5.66964000       0.14892000       2.95259000      -3.67617900       1.90971100       0.12919700      -3.70211821       1.65997612       0.28693450
Fe       5.39484000       2.66317000       1.55162000       4.08183700      -3.39937100       3.88213200       3.97215790      -3.75786474       4.11022152
Fe       5.91309000       3.40423000       8.31953000       8.90196200       5.48305700      -2.72562400       8.69763709       5.49444533      -2.75861965
Fe       4.96126000       4.63305000       3.41410000      -3.60269200      -2.00302700       2.25051900      -3.86725577      -2.27040630       2.40333653
Fe       5.11347000       6.81217000       1.78872000      -0.87770500       0.06714300      -1.61156800      -0.68003898       0.12103523      -1.59576251
Fe       5.00950000       6.45991000       8.24507000      -2.30619500      -0.19808200      -1.52355700      -2.20511789      -0.03439036      -1.68841880
Fe       4.64263000       7.71190000       5.75084000       2.50156800       4.23919200      -1.55456800       2.56748523       4.24868487      -1.64042548
Fe       7.32285000       0.33022000       5.03535000      -0.99210900      -0.59745100       4.73628300      -1.02710195      -0.38450359       4.73805959
Fe       6.75330000       1.32958000       7.05071000       0.53851300       2.01290400       0.36400700       0.48090636       1.87346482       0.33549629
Fe       6.82686000       2.53028000       3.66692000      -0.08907100      -0.12987400      -0.26318300       0.03037187      -0.19699041      -0.24545223
Fe       6.83617000       5.56618000       0.59386000       1.74434500       1.47371700      -3.32847200       1.81431327       1.84377942      -3.45769840
Fe       8.27091000       4.29855000       2.87718000       3.23308900       0.33980500       1.37352500       3.11999446       0.18662169       1.36126909
Fe       6.58774000       4.90718000       4.97515000      -1.87594500       0.58060600      -0.05143700      -2.06618531       0.53547171      -0.60609098
Fe       6.86773000       6.79187000       3.27473000       1.52763600      -2.76254700       0.67579100       1.46757852      -2.45895848       0.35150027
Fe       8.09083000       8.29691000       0.84396000      -4.18921500      -1.95965200       9.56442300      -4.28408892      -2.30199143       9.58593063
Fe       6.62133000       7.67903000       7.47205000      -3.65417600       1.51975600      -3.32990400      -3.97082797       1.32069682      -3.46962182
B        3.45077000       6.81738000       6.75435000       2.04131500      -2.79808300       3.80923700       1.90658900      -2.79103333       3.95265610
B        4.67436000       1.10514000       4.73414000       0.75036200       0.95391600      -0.52852700       0.81928639       0.88761697      -0.41375455
B        6.18153000       2.20088000       5.47737000      -4.49435700      -3.20609500      -2.27763700      -4.65505183      -3.16462618      -2.40482280
B        5.08133000       4.10197000       6.35983000       0.35152900       0.25548900      -0.65354500       0.52106239       0.37096649      -0.61278864
B        4.48663000       4.29393000       1.40792000      -0.27448100       1.04603100       0.21283300      -0.21585711       1.19169934       0.23804719
B        4.96286000       5.88068000       6.14703000       0.60492000      -1.85032800       0.29314600       0.49525735      -1.91674699       0.14013503
B        8.17242000       5.65216000       5.55863000       1.00443800       0.65677900      -0.69824300       1.01047857       0.78734072      -0.27978162
B        7.98743000       6.92663000       6.60530000       5.86774900       2.58695800      -4.05103700       5.77057629       2.31067687      -3.72547436
B        7.10769000       5.72812000       6.91109000      -2.33709700      -3.34606800       1.34633400      -2.11871309      -3.38444504       1.62610576
B        7.81665000       6.81498000       8.33858000       5.04350100      -2.41043400       0.97359300       5.08471506      -2.64233102       0.58805403
Si       0.06983000       0.14925000       7.74742000       4.12649000       2.60901100      -8.87608100       4.03029306       2.61261199      -8.76708885
Si       1.93337000       2.41223000       3.74634000      10.14534600       2.98113100     -12.18526000      10.23834154       3.06493719     -12.00942893
Si       0.75978000       6.02813000       1.69309000      -4.13401100      -0.74920300       1.02787300      -4.14292951      -0.83449774       0.97947613
Si       2.22023000       5.10313000       7.16329000      -1.58663400       1.19675500      -1.89967800      -1.64256421       1.15268725      -1.89186001
Si       3.27754000       8.17117000       8.35443000       4.04667900       4.58101600      -2.24829100       3.92942113       4.57561968      -2.40216129
Si       4.48145000       2.18337000       8.34202000      -5.72220500      -5.96162700      -4.99603400      -5.49628751      -5.95572711      -5.13395352
Si       6.36439000       4.54151000       2.12641000       2.28764700      -2.33178900       1.39384200       2.53073766      -2.12721508       1.33287102
Si       4.52267000       6.51460000       3.75633000       0.42177200       5.22743800       1.25328700       0.11969044       5.29995466       1.34511853
Si       7.68278000       0.22257000       3.11016000      -0.17295300       4.89916800      -3.86478000      -0.26126994       4.82793059      -3.94634300
Si       7.35363000       3.38410000       6.13231000       4.40786200       1.27045000       2.62604800       4.37159983       1.42871020       2.93577216
54
Lattice="8.579999685 0.0 0.0 0.0 8.579999685 0.0 0.0 0.0 8.5799996" Properties=species:S:1:pos:R:3:REF_forces:R:3:MACE_forces:R:3 config_type=Fe34B10Si10 REF_energy=-354.71875992 MACE_energy=-355.3675309518835 pbc="T T T"
Fe       0.43313000       1.19321000       2.96848000       1.47291300       2.99028000       0.61180900       1.45669409       2.91649022       0.33090199
Fe       0.91365000       1.12516000       8.09995000       2.76260400      -2.00335600       1.20968300       2.41278546      -1.95520077       1.06452829
Fe       1.17142000       2.67870000       5.23446000      -1.90323000       6.04651700       0.58026800      -1.74217360       6.12829851       0.40826741
Fe       0.60772000       3.85484000       0.87278000       2.66909500       4.89444800       4.53699300       2.56314758       5.02304820       4.18743386
Fe       1.41565000       3.44858000       3.01161000      -0.29549500       2.03729500      -0.74017400      -0.07612789       1.92605071      -0.67193988
Fe       0.04226000       2.91249000       8.09734000      -3.39897200      -2.84207300      -2.69442200      -2.79982753      -2.92232119      -2.40002579
Fe       1.33282000       7.09057000       5.22634000      -0.45239700      -1.35392500       0.92503500      -0.22766263      -1.50835570       0.96899956
Fe       2.06045000       7.92051000       0.98063000      -3.11321000      -0.30108300      -2.49280600      -3.18200025      -0.41261054      -2.43382918
Fe       2.03627000       8.24295000       3.50701000      -1.42216600       4.38122900       0.88517600      -1.48730701       4.12181727       0.65203055
Fe       0.01253000       8.02686000       7.00667000       2.58679700       0.98610200     -11.80201700       2.44501276       0.90579958     -11.87609813
Fe       3.00353000       0.57289000       6.13981000      -1.03922300       0.18357300       0.93137300      -0.78842965       0.11732243       1.01061348
Fe       3.69949000       2.65196000       7.51811000       2.76433000      -4.34399200      -3.80269000       2.59949263      -4.11341014      -3.67491360
Fe       2.94478000       6.44154000       3.03987000       7.21319500      -3.66655800      -1.17614100       7.01287211      -3.46969280      -1.01891134
Fe       2.94309000       5.75189000       6.64956000      -6.24071800      -0.74678300       3.86021800      -6.45630624      -0.64368632       3.89934037
Fe       3.71160000       8.39321000       1.86324000       2.24845700      -0.43546600       0.28887200       2.25129456      -0.15026830       0.69138339
Fe       4.07810000       8.43915000       4.32840000       2.88035800       1.28304800      -0.49181300       2.85665298       1.35654002      -0.75742295
Fe       5.57499000       0.73262000       6.31633000      -3.12774100      -1.68249800      -0.98058200      -2.83373239      -1.68973413      -0.91498540
Fe       4.70712000       1.94493000       1.65492000      -2.04675700       4.97917500      -3.67899600      -2.15075087       4.77439417      -3.45559824
Fe       4.73401000       4.18392000       1.24748000       0.71501700       1.80608500      -0.06999200       0.71730854       2.02129151      -0.10591457
Fe       4.56687000       4.22266000       4.39618000       0.73801700       3.32591500      -2.10569900       0.51338521       3.16562140      -2.19060226
Fe       4.51224000       4.61167000       7.05684000       2.53211900      -0.41024200       0.53825400       2.97205143      -0.75489969       0.48523018
Fe       6.32808000       6.81945000       4.24288000      -3.20445400      -0.33519400      -1.28892300      -2.79250871      -0.24169454      -1.09770999
Fe       6.22240000       7.17309000       0.16230000      -3.30904600      -2.75215800       1.90373500      -3.51989101      -3.01762111       2.07385103
Fe       4.54224000       7.44382000       7.03838000       0.17895600      -5.02037800      -8.74618400       0.28610781      -5.24094939      -8.90750661
Fe       4.73272000       8.55832000       8.35561000      -0.10588400       8.96287400       6.54083400      -0.21925206       9.43700064       6.20077208
Fe       7.67285000       2.82429000       2.17742000      -2.12886900      -0.76272600      -2.06587500      -2.07323980      -0.82846982      -1.98387873
Fe       6.74071000       1.77406000       4.33655000       0.47479500       0.50025500      -0.42349800       0.07661960       0.43782109      -0.46761039
Fe       7.16362000       1.61896000       6.68131000       5.11373900       1.83737400       0.70818800       4.76045888       1.66934731       0.64105089
Fe       6.73653000       4.13840000       7.84564000       0.19062300       0.32905600       3.59274800       0.13259079       0.49140790       3.63449450
Fe       6.61248000       5.35948000       2.44590000       0.96755600      -0.77403900      -0.47053600       0.84324706      -0.66771423      -0.49830172
Fe       8.39074000       4.95678000       4.82580000       0.50677700       3.21370700       1.22596300       0.61063222       3.11407781       1.08877078
Fe       6.62275000       6.29700000       6.29237000       0.91106900      -0.58785400       1.74696000       0.80782790      -0.47593625       1.60538880
Fe       8.00875000       8.14674000       2.12563000      -1.25903800      -1.94608200      -3.37077000      -0.88002681      -1.94453643      -3.39640385
Fe       7.96861000       8.10559000       4.08816000       1.24434400       0.03207600       4.40361200       0.70400515       0.01424166       4.51615630
B        3.14587000       1.61638000       2.59818000      -3.96044800      -1.57388800      -2.24367700      -3.97221570      -1.49350986      -2.04133077
B        4.07212000       1.93087000       3.78701000       0.55534200       0.12762300      -3.25123200       0.44528280       0.14855602      -3.18863254
B        2.24412000       1.90783000       4.05913000      -1.80380000      -9.70850100      -5.48536600      -1.84698610      -9.94160256      -5.59167767
B        2.90130000       3.06657000       4.45062000       2.48509300       7.60479000      -1.50334300       2.90181145       7.29198293      -1.53033458
B        2.82587000       3.80138000       5.80651000       0.21675600       2.27927400       3.92227300       0.31917918       2.12875098       3.87220314
B        2.60929000       5.04297000       1.66311000       0.12617300      -0.77075900      -0.46531300      -0.05887754      -0.77184407      -0.40262784
B        2.47198000       4.95014000       4.32601000      -0.76752800      -1.31946700       0.35153300      -0.81544062      -1.21222412       0.35625482
B        2.73354000       7.81887000       7.66829000      -1.47869400      -0.15377200       0.00458000      -1.52416381      -0.17225740       0.19480824
B        5.68071000       2.28134000       7.79544000      -0.95924500       0.41857400       1.11780500      -0.94209708       0.34507333       1.05424446
B        7.77536000       3.70665000       3.76574000      -0.44877700      -1.48394500      -0.38974400      -0.55381033      -1.39722189      -0.04470278
Si       0.79518000       0.92195000       5.77957000      -1.66645900      -4.94136200      -1.10925300      -1.62205358      -5.09266002      -0.94793736
Si       0.88055000       4.20706000       6.73551000       1.15626000       3.58432200      -0.32349000       1.10516611       3.76200901      -0.21642261
Si       1.15025000       6.44729000       2.43826000      -7.77651300      -1.83655100      -1.54918700      -7.89564478      -1.72284359      -1.71478770
Si       2.82820000       3.29548000       0.50208000      -4.05499500       1.58525200       5.32597100      -4.12256864       1.46391470       5.26376746
Si       4.14031000       6.38272000       0.30005000      -2.16949800      -2.44928300       2.57761000      -2.23161426      -2.48168373       2.54510606
Si       3.68345000       6.43010000       5.01209000       3.98893100       0.98565200      -2.13453700       3.84613349       1.17448530      -2.08086081
Si       5.73751000       0.59059000       2.53265000       5.08228400      -4.90021500       2.23852200       5.13294137      -4.90781867       2.49435550
Si       4.51163000       2.47994000       5.36819000       2.60737700      -2.86786400       7.12589500       2.76654018      -2.67980485       7.00581395
Si       6.43436000       3.75222000       5.86206000       1.38008400       0.66155200      -3.64612400       1.56878137       0.77588771      -3.75782948
Si       8.06432000       7.52318000       8.55473000       2.36409700      -3.06603600      11.34847700       2.70668617      -2.80065830      11.12302970
18
Lattice="6.5 0.0 0.0 0.0 6.5 0.0 0.0 0.0 6.5" Properties=species:S:1:pos:R:3:REF_forces:R:3:MACE_forces:R:3 config_type=Fe12B3Si3 REF_energy=-113.87843945 MACE_energy=-113.05630360805131 pbc="T T T"
Fe       5.40234000       5.43492000       1.53729000      -1.39532100       2.04028400       0.71142300      -1.08182513       1.92072761       0.69589010
Fe       2.09750000       2.10361000       0.54730000       2.35673700      -0.33103000       1.27254800       2.51312929      -0.07266090       1.16128094
Fe       2.84360000       1.73250000       3.81271000       2.28004000      -1.18251600      -0.27344700       2.18138689      -0.99582692      -0.18003203
Fe       0.77541000       4.93717000       1.04317000       1.56096300      -3.83372900       1.76362000       1.35484972      -3.53517611       1.50158288
Fe       0.07665000       3.70431000       3.74351000      -0.75952900      -0.39175400      -2.23189700      -1.07488737      -0.45687884      -2.28530374
Fe       4.77171000       3.58949000       4.78220000      -1.99219600      -4.62409700       0.48420500      -1.74314055      -4.54950659       0.40616214
Fe       4.12430000       1.49867000       1.46476000       0.29771700      -2.38794700       0.28396300       0.31378478      -2.65052815       0.10419662
Fe       0.95387000       5.17746000       5.28728000      -0.57085000      -0.50160400      -1.80733600      -0.95248988      -0.71005331      -1.30581632
Fe       1.93602000       3.09888000       2.36598000      -0.08855100       0.43128300      -0.27209000      -0.17665403       0.57810467      -0.44810938
Fe       5.69037000       1.28357000       4.20026000      -0.40866000      -0.49067900       0.18976600      -0.73542995      -0.27321802       0.23095979
Fe       1.94321000       2.86141000       5.39871000      -0.55906500       0.73218900      -1.80086600      -0.55068164       0.75041824      -1.88619196
Fe       4.33122000       5.38124000       5.25469000      -0.73272900       4.56545400       1.52017900      -0.64574548       4.36000695       1.53172652
B        0.37598000       1.64060000       1.21420000      -3.21263000       2.85095800       0.76078000      -3.05723133       2.71908293       0.88794367
B        1.88110000       4.04794000       3.96741000       2.48956600       2.45119300      -0.32261600       2.68993405       2.32696420      -0.32882666
B        3.63878000       0.94242000       5.41981000      -0.01444500       0.67937600       0.95779200       0.15777341       0.82871154       1.09118852
Si       1.19380000       0.26963000       0.19686000       0.54051800       0.24528300      -1.93219100       0.67776008      -0.00916313      -1.90571266
Si       4.57825000       3.47658000       1.16117000       0.15934200       1.26766700      -0.81102600       0.19417663       1.44290183      -0.73949307
Si       1.09558000       0.76720000       2.75124000       0.04909300      -1.52033200       1.50719200      -0.06470947      -1.67390600       1.46855464
54
Lattice="8.579999685 0.0 0.0 0.0 8.579999685 0.0 0.0 0.0 8.5799996" Properties=species:S:1:pos:R:3:REF_forces:R:3:MACE_forces:R:3 config_type=Fe34B10Si10 REF_energy=-356.0869274 MACE_energy=-356.93232839115745 pbc="T T T"
Fe       0.92877000       1.08311000       2.12831000      -0.53214900      -1.15432400       0.53007800      -0.68633302      -1.22664676       0.41636504
Fe       1.12794000       0.45096000       7.37327000      -2.86345100       2.18226700       1.45805300      -2.85820962       1.99720907       1.46281328
Fe       0.91289000       3.61082000       1.96264000      -1.66570100       0.50807500      -4.76654600      -1.66289910       0.30381213      -4.77507129
Fe       0.97242000       3.25012000       3.83975000      -0.85629000      -1.23507100      -0.91491200      -1.06754908      -1.20154839      -0.32084788
Fe       1.43574000       3.84332000       5.84621000      -1.94378300      -0.72872400       4.94145300      -2.07113058      -0.54742710       4.67148760
Fe       0.45897000       5.99881000       1.32384000       1.86679900       1.45939200      -0.33976700       1.64593856       1.57847941      -0.16543501
Fe       0.05714000       6.25044000       6.01250000       0.66851500      -0.88142700       1.67028200       0.74131506      -0.76019016       1.77597518
Fe       1.87526000       7.05991000       7.27744000      -5.90957000       6.81146600       5.95768600      -5.76327521       7.20189726       5.94498830
Fe       4.21220000       0.80536000       3.81626000       0.44958900      -1.97725700       0.54591300       0.54650026      -1.90821139       0.44845224
Fe       2.64196000       0.75311000       5.88605000       0.80305000      -0.92688600      -1.50973400       0.58095482      -1.08476933      -1.57669848
Fe       2.51735000       4.27963000       7.86001000      -0.17185400       2.88247300       0.00075600       0.01163984       2.96351558       0.31218548
Fe       2.46175000       4.76211000       4.38544000       2.27245000       6.36429500      -0.60000700       2.21092698       6.32622374      -0.58392988
Fe       3.99132000       4.46692000       6.09268000      -0.21521200      -1.96607600      -0.25853400      -0.21296950      -2.16280934      -0.17385244
Fe       4.03283000       6.20484000       2.50717000       0.32509400      -1.83048700       1.07686200       0.43109049      -1.74550353       1.15118260
Fe       2.62183000       8.12097000       1.25125000      -5.45108600      -1.04608100      -0.88869000      -5.54441639      -1.06024605      -0.58096617
Fe       2.34208000       7.49949000       3.33705000      -1.45221900       0.10179900       1.96325000      -1.25225855       0.21454495       1.59206352
Fe       4.67554000       0.98699000       8.35162000       1.97529500       0.95938300       0.07305200       1.71644860       0.80050852       0.39558863
Fe       4.68615000       2.28426000       1.60336000       6.03713100       4.39249100       1.56082500       6.19804438       4.34965219       1.16593210
Fe       4.95897000       4.28949000       0.91503000       1.24258400       3.77490300      -1.07876200       0.70253456       3.47502639      -1.25261756
Fe       5.62605000       3.84953000       3.25301000      -4.56775200       3.43217100       2.09526400      -4.59609058       3.50181942       1.91571346
Fe       5.63153000       5.70233000       4.67966000       0.04558900       0.36352900      -0.74034800       0.05488309      -0.06234127      -0.59915241
Fe       5.00954000       6.14620000       6.89198000       4.51113600      -2.60361300       1.43664400       4.54977048      -2.39899401       1.39068570
Fe       5.34723000       7.32984000       0.56425000       3.41130600      -7.55812200      -7.44238600       3.35048920      -7.01446857      -7.22548048
Fe       4.57141000       8.20633000       1.67615000      -2.51651100       6.57056000       9.11650700      -2.62582516       6.13313936       8.67365003
Fe       5.67084000       7.83697000       6.02451000      -0.02983000       3.57151200       0.33120700      -0.09552195       3.68544659       0.39659426
Fe       7.65837000       1.05332000       0.64336000       1.95813700       2.93603900      -3.62028800       1.88636989       2.96868521      -3.51377624
Fe       7.23579000       1.49494000       3.62009000       0.88838800      -1.50203300       3.00240400       0.96713866      -1.58713716       3.05884596
Fe       6.96409000       1.59543000       6.70415000       0.40175100      -2.57633900      -0.54943900       0.52435533      -2.53425051      -0.52087272
Fe       6.97946000       3.05325000       2.27831000       3.01329100      -2.85779700      -7.80747400       2.46582744      -2.95781142      -7.22486976
Fe       7.05854000       3.62734000       7.13255000       0.94483300       2.42104600       2.56329500       1.03256956       2.45215269       2.48719525
Fe       7.47490000       4.49325000       0.92243000      -3.13561000       0.06366500       0.11142200      -2.92042484       0.42782229      -0.31049537
Fe       7.76499000       5.40883000       4.05655000       3.42051700      -2.49950500       1.10150300       3.50498622      -2.67118501       1.13524742
Fe       6.91686000       6.16423000       2.38917000      -4.34160700       0.52717700      -3.24358900      -4.31000697       0.63717494      -3.18298621
Fe       7.31773000       7.39473000       4.73130000      -1.41907300       3.06948200       1.38572900      -1.42457007       3.07201642       1.33994576
B        1.63947000       5.44017000       2.85377000      -1.37965300       1.67099600      -0.34434500      -1.47254373       1.77507942      -0.61780760
B        3.47444000       1.29905000       1.69513000      -6.04542900      -7.46227000      -1.52467000      -5.89705340      -7.24805628      -1.18073495
B        2.31673000       1.42955000       3.77944000      -1.85652800      -2.14982900       3.21956500      -1.75605128      -1.98097144       3.48108057
B        3.17088000       0.01260000       8.16689000      -2.14308300      -0.12737100      -3.63430700      -2.04639215       0.09868073      -3.59152081
B        2.48887000       2.23189000       2.44876000      -1.30373000       3.96631200      -0.94871100      -0.88601117       3.87906189      -1.26962264
B        3.55016000       3.21990000       0.17024000       2.13469500      -3.52588700       0.23974700       2.16236962      -3.43513889       0.24442479
B        3.12966000       3.07291000       4.24572000      -6.99085300       0.34377600      -0.16579100      -7.16611788       0.09655266      -0.28064582
B        2.38358000       5.95301000       6.34325000       2.25901800      -8.76611800      -6.31465800       2.23488617      -9.20974838      -6.55534759
B        4.46260000       2.62992000       4.23823000       7.08507900      -1.75449200       0.40993300       7.22710932      -1.76257580       0.46077712
B        7.51183000       3.59374000       3.85724000       1.49621300      -1.20378300       3.39561400       1.51653343      -1.10503048       3.28155905
Si       0.50050000       1.66927000       5.10425000      -1.02554400      -2.67263500       2.61432900      -0.83250379      -2.92272029       2.53695677
Si       0.41923000       4.50138000       8.15701000       0.82744200      -0.47721100      -2.57541600       1.06076567      -0.45885458      -2.80437532
Si       2.90131000       4.25049000       1.93860000       2.71957100       0.04497600      -0.88170100       2.92421978      -0.04562163      -1.10999139
Si       3.74353000       6.85388000       5.19884000      -1.20766000       1.80214700      -2.20114300      -1.08539361       1.98874609      -2.18691609
Si       3.54209000       6.47938000       8.21357000      -0.45014500      -1.75854100       4.24377300      -0.55864490      -2.00793951       4.44211541
Si       4.55252000       1.74669000       6.40118000       0.28733400       0.20348600      -1.69136000       0.28293547       0.18142183      -1.69530467
Si       5.87020000       3.30923000       5.41310000       1.93974000       0.55942400      -1.14043100       1.57499785       0.72906711      -1.13427694
Si       6.68392000       0.09389000       2.07850000      -2.78148600      -1.30329400       2.70552900      -2.47551917      -1.22103937       2.83610396
Si       7.30980000       7.36953000       0.08595000       4.18267400      -0.22507900      -1.67891000       4.12563916      -0.51288332      -1.68127186
Si       8.41387000       7.50606000       2.97540000       5.08859000       1.78741200      -0.88875800       5.03647178       1.99638409      -0.90306190
54
Lattice="8.579999685 0.0 0.0 0.0 8.579999685 0.0 0.0 0.0 8.5799996" Properties=species:S:1:pos:R:3:REF_forces:R:3:MACE_forces:R:3 config_type=Fe34B10Si10 REF_energy=-359.84864784 MACE_energy=-360.3268697797432 pbc="T T T"
Fe       0.39531000       2.37288000       0.87042000       3.27925500       2.43832800      -1.60261100       3.21009476       2.64356986      -1.76557823
Fe       0.75383000       1.65209000       3.11094000       1.30783500      -0.34615400      -0.09267000       1.27467423      -0.80632981       0.19338269
Fe       1.33201000       3.79282000       7.26231000      -2.40668100      -1.18131200       0.32245500      -2.51751401      -1.06203839       0.20605663
Fe       0.64436000       4.41396000       2.97573000       2.42004200      -2.26182600       0.38963900       2.47657249      -2.07434712       0.23115248
Fe       0.14751000       6.42079000       3.51005000      -3.07002100       1.32407200      -2.30638400      -3.11644480       1.36550221      -2.50439003