54
Lattice="8.579999685 0.0 0.0 0.0 8.579999685 0.0 0.0 0.0 8.5799996" Properties=species:S:1:pos:R:3:REF_forces:R:3:MACE_forces:R:3 config_type=Fe34B10Si10 REF_energy=-352.89092233 MACE_energy=-353.248800179538 pbc="T T T"
Fe       1.46495000       0.71583000       1.12880000       3.73230100      -3.41607500      -3.76209700       3.63223963      -3.43164447      -3.49475958
Fe       0.56244000       2.07917000       1.96452000      -3.31290700       4.06628900       2.54508600      -3.34317744       4.05493828       2.33942173
Fe       0.86636000       2.12990000       5.00906000     -10.85567700      -2.87102900      12.20968700     -10.87968590      -2.94280377      12.20533828
Fe       0.24697000       2.61233000       7.83061000      -0.37811800      -2.03816900      -0.08744800      -0.37559101      -2.04368313       0.07978570
Fe       0.35437000       4.66395000       8.16447000      -1.30300600       1.62250000       0.84662400      -1.35686162       1.77593421       0.76901063
Fe       0.83543000       8.00840000       3.01492000       5.54921000      -2.55787300       0.52513800       5.61652618      -2.63164623       0.47372189
Fe       2.03952000       7.84431000       6.63062000      -4.28706100       1.82495200      -1.68802900      -4.09166268       2.02503172      -1.73579442
Fe       3.34318000       0.11090000       2.96052000      -0.46571400      -0.35056300       0.37864800      -0.49819447      -0.16665452       0.45329555
Fe       3.26317000       2.11539000       1.48699000      -3.47884800      -0.03222100       0.61542300      -3.30474630      -0.24775685       0.26063732
Fe       4.14313000       2.75755000       3.31065000      -0.71378000      -2.73118300       1.93004800      -0.69172925      -2.44460591       1.88026197
Fe       2.55051000       2.67374000       7.19710000      -2.55215900      -0.93589000       1.77261600      -2.23610718      -1.02546504       1.68883951
Fe       3.61327000       2.86500000       5.46497000       1.55763200       0.20514300      -0.56676300       1.45516130       0.28567945      -0.28971159
Fe       2.62400000       4.72550000       1.39174000      -1.08585200      -1.19598700       0.59645400      -1.32939803      -0.98455032       0.67240111
Fe       2.20317000       5.21693000       3.87451000      -3.92870900      -4.38103900      -4.92199500      -3.93863787      -4.34548986      -5.10051405
Fe       3.93082000       4.37819000       8.08226000       1.07616800       0.44807800      -0.99700400       0.93789504       0.22633787      -0.99838636
Fe       2.44961000       7.01753000       1.08943000       0.32119000      -1.55635000       3.27006500       0.44065410      -1.58772369       3.35078519
Fe       3.02500000       6.15780000       5.08193000      -1.08486800       1.64126100       3.95415400      -0.28775118       1.78200946       4.10610865
Fe       5.77712000       0.44616000       0.16142000      -2.43333700       0.07175000       4.13474700      -2.41328490       0.41072296       4.17438242
Fe       5.66964000       0.14892000       2.95259000      -3.67617900       1.90971100       0.12919700      -3.68375399       1.65321902       0.32135929
Fe       5.39484000       2.66317000       1.55162000       4.08183700      -3.39937100       3.88213200       3.99028156      -3.76252245       4.15842709
Fe       5.91309000       3.40423000       8.31953000       8.90196200       5.48305700      -2.72562400       8.74382502       5.38664301      -2.76173510
Fe       4.96126000       4.63305000       3.41410000      -3.60269200      -2.00302700       2.25051900      -3.88372804      -2.37419250       2.40667165
Fe       5.11347000       6.81217000       1.78872000      -0.87770500       0.06714300      -1.61156800      -0.73649808       0.13648502      -1.67172378
Fe       5.00950000       6.45991000       8.24507000      -2.30619500      -0.19808200      -1.52355700      -2.20906841      -0.02206149      -1.77853284
Fe       4.64263000       7.71190000       5.75084000       2.50156800       4.23919200      -1.55456800       2.55615071       4.28663572      -1.61183453
Fe       7.32285000       0.33022000       5.03535000      -0.99210900      -0.59745100       4.73628300      -0.94787894      -0.34716638       4.69128324
Fe       6.75330000       1.32958000       7.05071000       0.53851300       2.01290400       0.36400700       0.48727743       1.86199020       0.32643531
Fe       6.82686000       2.53028000       3.66692000      -0.08907100      -0.12987400      -0.26318300       0.03022511      -0.18730074      -0.19510907
Fe       6.83617000       5.56618000       0.59386000       1.74434500       1.47371700      -3.32847200       1.77348886       1.73624866      -3.48219824
Fe       8.27091000       4.29855000       2.87718000       3.23308900       0.33980500       1.37352500       3.08075562       0.17715187       1.32383122
Fe       6.58774000       4.90718000       4.97515000      -1.87594500       0.58060600      -0.05143700      -2.06140524       0.59781688      -0.48512904
Fe       6.86773000       6.79187000       3.27473000       1.52763600      -2.76254700       0.67579100       1.46818078      -2.43655338       0.36208049
Fe       8.09083000       8.29691000       0.84396000      -4.18921500      -1.95965200       9.56442300      -4.16638224      -2.21834031       9.64491182
Fe       6.62133000       7.67903000       7.47205000      -3.65417600       1.51975600      -3.32990400      -4.00477522       1.29430565      -3.46957215
B        3.45077000       6.81738000       6.75435000       2.04131500      -2.79808300       3.80923700       1.96797055      -2.89873265       3.90727071
B        4.67436000       1.10514000       4.73414000       0.75036200       0.95391600      -0.52852700       0.79365039       0.96886363      -0.42237463
B        6.18153000       2.20088000       5.47737000      -4.49435700      -3.20609500      -2.27763700      -4.63291770      -3.15549585      -2.48662970
B        5.08133000       4.10197000       6.35983000       0.35152900       0.25548900      -0.65354500       0.48359929       0.25296297      -0.55850773
B        4.48663000       4.29393000       1.40792000      -0.27448100       1.04603100       0.21283300      -0.23819483       1.23771950       0.22030367
B        4.96286000       5.88068000       6.14703000       0.60492000      -1.85032800       0.29314600       0.45237595      -1.83137126       0.12475794
B        8.17242000       5.65216000       5.55863000       1.00443800       0.65677900      -0.69824300       1.07691924       0.67011078      -0.23306568
B        7.98743000       6.92663000       6.60530000       5.86774900       2.58695800      -4.05103700       5.77266366       2.30791748      -3.49252405
B        7.10769000       5.72812000       6.91109000      -2.33709700      -3.34606800       1.34633400      -2.13294456      -3.43543144       1.48913293
B        7.81665000       6.81498000       8.33858000       5.04350100      -2.41043400       0.97359300       4.97867161      -2.57690633       0.47125782
Si       0.06983000       0.14925000       7.74742000       4.12649000       2.60901100      -8.87608100       3.95769553       2.55696165      -8.81239762
Si       1.93337000       2.41223000       3.74634000      10.14534600       2.98113100     -12.18526000      10.20270660       3.03871488     -12.01084628
Si       0.75978000       6.02813000       1.69309000      -4.13401100      -0.74920300       1.02787300      -4.13213488      -0.88028637       0.95076895
Si       2.22023000       5.10313000       7.16329000      -1.58663400       1.19675500      -1.89967800      -1.66338654       1.16832658      -1.84333231
Si       3.27754000       8.17117000       8.35443000       4.04667900       4.58101600      -2.24829100       3.89629511       4.50181244      -2.36108929
Si       4.48145000       2.18337000       8.34202000      -5.72220500      -5.96162700      -4.99603400      -5.45306948      -5.88253262      -5.16468997
Si       6.36439000       4.54151000       2.12641000       2.28764700      -2.33178900       1.39384200       2.58802826      -2.15019745       1.22643573
Si       4.52267000       6.51460000       3.75633000       0.42177200       5.22743800       1.25328700       0.12339458       5.31927741       1.35203877
Si       7.68278000       0.22257000       3.11016000      -0.17295300       4.89916800      -3.86478000      -0.22084108       4.86187852      -3.93241743
Si       7.35363000       3.38410000       6.13231000       4.40786200       1.27045000       2.62604800       4.40717494       1.43541916       2.96191885
54
Lattice="8.579999685 0.0 0.0 0.0 8.579999685 0.0 0.0 0.0 8.5799996" Properties=species:S:1:pos:R:3:REF_forces:R:3:MACE_forces:R:3 config_type=Fe34B10Si10 REF_energy=-354.71875992 MACE_energy=-355.3484472046604 pbc="T T T"
Fe       0.43313000       1.19321000       2.96848000       1.47291300       2.99028000       0.61180900       1.47583913       2.89336985       0.39244592
Fe       0.91365000       1.12516000       8.09995000       2.76260400      -2.00335600       1.20968300       2.38637980      -1.80599700       1.10467198
Fe       1.17142000       2.67870000       5.23446000      -1.90323000       6.04651700       0.58026800      -1.67045430       6.12735598       0.36147338
Fe       0.60772000       3.85484000       0.87278000       2.66909500       4.89444800       4.53699300       2.66879875       5.09773185       4.11172339
Fe       1.41565000       3.44858000       3.01161000      -0.29549500       2.03729500      -0.74017400       0.00869006       1.92894431      -0.68630220
Fe       0.04226000       2.91249000       8.09734000      -3.39897200      -2.84207300      -2.69442200      -2.77823659      -3.00631071      -2.45920194
Fe       1.33282000       7.09057000       5.22634000      -0.45239700      -1.35392500       0.92503500      -0.23425767      -1.45929604       0.94309280
Fe       2.06045000       7.92051000       0.98063000      -3.11321000      -0.30108300      -2.49280600      -3.28361286      -0.43697344      -2.49667032
Fe       2.03627000       8.24295000       3.50701000      -1.42216600       4.38122900       0.88517600      -1.53559504       4.10047413       0.62958979
Fe       0.01253000       8.02686000       7.00667000       2.58679700       0.98610200     -11.80201700       2.47946052       0.86780714     -12.00608817
Fe       3.00353000       0.57289000       6.13981000      -1.03922300       0.18357300       0.93137300      -0.77574427       0.15137386       0.98048438
Fe       3.69949000       2.65196000       7.51811000       2.76433000      -4.34399200      -3.80269000       2.60324848      -4.13355543      -3.69191672
Fe       2.94478000       6.44154000       3.03987000       7.21319500      -3.66655800      -1.17614100       6.99466022      -3.44740915      -0.98826473
Fe       2.94309000       5.75189000       6.64956000      -6.24071800      -0.74678300       3.86021800      -6.43381887      -0.64837429       4.02300231
Fe       3.71160000       8.39321000       1.86324000       2.24845700      -0.43546600       0.28887200       2.38699081      -0.07130023       0.68170194
Fe       4.07810000       8.43915000       4.32840000       2.88035800       1.28304800      -0.49181300       2.84874129       1.30356499      -0.80192120
Fe       5.57499000       0.73262000       6.31633000      -3.12774100      -1.68249800      -0.98058200      -2.77415793      -1.74799298      -0.92836896
Fe       4.70712000       1.94493000       1.65492000      -2.04675700       4.97917500      -3.67899600      -2.11185663       4.76146246      -3.42539704
Fe       4.73401000       4.18392000       1.24748000       0.71501700       1.80608500      -0.06999200       0.71013188       1.96478206      -0.13770502
Fe       4.56687000       4.22266000       4.39618000       0.73801700       3.32591500      -2.10569900       0.49882687       3.17286642      -2.12325790
Fe       4.51224000       4.61167000       7.05684000       2.53211900      -0.41024200       0.53825400       2.95485304      -0.71219188       0.48352929
Fe       6.32808000       6.81945000       4.24288000      -3.20445400      -0.33519400      -1.28892300      -2.80764136      -0.23341095      -1.07666618
Fe       6.22240000       7.17309000       0.16230000      -3.30904600      -2.75215800       1.90373500      -3.47750272      -2.95966485       2.02780651
Fe       4.54224000       7.44382000       7.03838000       0.17895600      -5.02037800      -8.74618400       0.32436685      -5.28905906      -8.86905079
Fe       4.73272000       8.55832000       8.35561000      -0.10588400       8.96287400       6.54083400      -0.35428396       9.32241002       6.18553029
Fe       7.67285000       2.82429000       2.17742000      -2.12886900      -0.76272600      -2.06587500      -2.14048769      -0.81441654      -1.96388033
Fe       6.74071000       1.77406000       4.33655000       0.47479500       0.50025500      -0.42349800       0.06927258       0.40455985      -0.43823911
Fe       7.16362000       1.61896000       6.68131000       5.11373900       1.83737400       0.70818800       4.68169558       1.60092010       0.62435577
Fe       6.73653000       4.13840000       7.84564000       0.19062300       0.32905600       3.59274800       0.17489490       0.46594692       3.59948145
Fe       6.61248000       5.35948000       2.44590000       0.96755600      -0.77403900      -0.47053600       0.86138525      -0.67083791      -0.42574428
Fe       8.39074000       4.95678000       4.82580000       0.50677700       3.21370700       1.22596300       0.55922378       3.15590103       1.08611897
Fe       6.62275000       6.29700000       6.29237000       0.91106900      -0.58785400       1.74696000       0.82926438      -0.49420419       1.60707118
Fe       8.00875000       8.14674000       2.12563000      -1.25903800      -1.94608200      -3.37077000      -0.86469421      -1.88456681      -3.43493720
Fe       7.96861000       8.10559000       4.08816000       1.24434400       0.03207600       4.40361200       0.73191409       0.04396967       4.57792270
B        3.14587000       1.61638000       2.59818000      -3.96044800      -1.57388800      -2.24367700      -3.98508992      -1.47636942      -2.01108163
B        4.07212000       1.93087000       3.78701000       0.55534200       0.12762300      -3.25123200       0.36495118       0.15249462      -3.23858808
B        2.24412000       1.90783000       4.05913000      -1.80380000      -9.70850100      -5.48536600      -1.88939196     -10.06184304      -5.62595835
B        2.90130000       3.06657000       4.45062000       2.48509300       7.60479000      -1.50334300       2.84208698       7.25083716      -1.50736783
B        2.82587000       3.80138000       5.80651000       0.21675600       2.27927400       3.92227300       0.25942231       2.21056475       3.95955603
B        2.60929000       5.04297000       1.66311000       0.12617300      -0.77075900      -0.46531300      -0.01679010      -0.84283126      -0.46449049
B        2.47198000       4.95014000       4.32601000      -0.76752800      -1.31946700       0.35153300      -0.79375690      -1.21242353       0.44612171
B        2.73354000       7.81887000       7.66829000      -1.47869400      -0.15377200       0.00458000      -1.53907659      -0.16787114       0.22573236
B        5.68071000       2.28134000       7.79544000      -0.95924500       0.41857400       1.11780500      -0.97365447       0.39693910       1.08579863
B        7.77536000       3.70665000       3.76574000      -0.44877700      -1.48394500      -0.38974400      -0.53620825      -1.42160388      -0.08977924
Si       0.79518000       0.92195000       5.77957000      -1.66645900      -4.94136200      -1.10925300      -1.62371246      -4.98536544      -0.97321973
Si       0.88055000       4.20706000       6.73551000       1.15626000       3.58432200      -0.32349000       1.10613575       3.66331352      -0.21843184
Si       1.15025000       6.44729000       2.43826000      -7.77651300      -1.83655100      -1.54918700      -7.79458289      -1.72666339      -1.69967709
Si       2.82820000       3.29548000       0.50208000      -4.05499500       1.58525200       5.32597100      -4.05429798       1.37722877       5.24722436
Si       4.14031000       6.38272000       0.30005000      -2.16949800      -2.44928300       2.57761000      -2.32782997      -2.38632883       2.45392663
Si       3.68345000       6.43010000       5.01209000       3.98893100       0.98565200      -2.13453700       3.86185504       1.16752225      -2.17688736
Si       5.73751000       0.59059000       2.53265000       5.08228400      -4.90021500       2.23852200       5.10283279      -4.84470083       2.50472713
Si       4.51163000       2.47994000       5.36819000       2.60737700      -2.86786400       7.12589500       2.81080451      -2.57934747       7.09886904
Si       6.43436000       3.75222000       5.86206000       1.38008400       0.66155200      -3.64612400       1.49048319       0.71037447      -3.73828167
Si       8.06432000       7.52318000       8.55473000       2.36409700      -3.06603600      11.34847700       2.68952559      -2.77180557      11.25541746
18
Lattice="6.5 0.0 0.0 0.0 6.5 0.0 0.0 0.0 6.5" Properties=species:S:1:pos:R:3:REF_forces:R:3:MACE_forces:R:3 config_type=Fe12B3Si3 REF_energy=-113.87843945 MACE_energy=-113.05225513055669 pbc="T T T"
Fe       5.40234000       5.43492000       1.53729000      -1.39532100       2.04028400       0.71142300      -1.01246435       1.81592362       0.69707627
Fe       2.09750000       2.10361000       0.54730000       2.35673700      -0.33103000       1.27254800       2.56731639      -0.12724956       1.38085492
Fe       2.84360000       1.73250000       3.81271000       2.28004000      -1.18251600      -0.27344700       2.25164530      -0.99855547      -0.20430474
Fe       0.77541000       4.93717000       1.04317000       1.56096300      -3.83372900       1.76362000       1.21100621      -3.37750346       1.61629914
Fe       0.07665000       3.70431000       3.74351000      -0.75952900      -0.39175400      -2.23189700      -1.22402103      -0.47708438      -2.24774584
Fe       4.77171000       3.58949000       4.78220000      -1.99219600      -4.62409700       0.48420500      -1.62070150      -4.52143624       0.37724180
Fe       4.12430000       1.49867000       1.46476000       0.29771700      -2.38794700       0.28396300       0.24581647      -2.67252811       0.11375308
Fe       0.95387000       5.17746000       5.28728000      -0.57085000      -0.50160400      -1.80733600      -0.93840467      -0.65127842      -1.37638220
Fe       1.93602000       3.09888000       2.36598000      -0.08855100       0.43128300      -0.27209000      -0.21607693       0.46700037      -0.66670041
Fe       5.69037000       1.28357000       4.20026000      -0.40866000      -0.49067900       0.18976600      -0.85319007      -0.32636481       0.22261214
Fe       1.94321000       2.86141000       5.39871000      -0.55906500       0.73218900      -1.80086600      -0.44706267       0.67093121      -1.94981310
Fe       4.33122000       5.38124000       5.25469000      -0.73272900       4.56545400       1.52017900      -0.54078403       4.36564050       1.57851270
B        0.37598000       1.64060000       1.21420000      -3.21263000       2.85095800       0.76078000      -2.95801978       2.69449164       0.79901634
B        1.88110000       4.04794000       3.96741000       2.48956600       2.45119300      -0.32261600       2.66417051       2.44017010      -0.26570117
B        3.63878000       0.94242000       5.41981000      -0.01444500       0.67937600       0.95779200       0.11365906       0.80710598       1.08768098
Si       1.19380000       0.26963000       0.19686000       0.54051800       0.24528300      -1.93219100       0.62372649       0.02661455      -1.81389811
Si       4.57825000       3.47658000       1.16117000       0.15934200       1.26766700      -0.81102600       0.18040297       1.52453205      -0.81392455
Si       1.09558000       0.76720000       2.75124000       0.04909300      -1.52033200       1.50719200      -0.04701838      -1.66040958       1.46542272
54
Lattice="8.579999685 0.0 0.0 0.0 8.579999685 0.0 0.0 0.0 8.5799996" Properties=species:S:1:pos:R:3:REF_forces:R:3:MACE_forces:R:3 config_type=Fe34B10Si10 REF_energy=-356.0869274 MACE_energy=-356.93654645890194 pbc="T T T"
Fe       0.92877000       1.08311000       2.12831000      -0.53214900      -1.15432400       0.53007800      -0.73239903      -1.18390762       0.39416592
Fe       1.12794000       0.45096000       7.37327000      -2.86345100       2.18226700       1.45805300      -2.81699324       1.96820920       1.42769823
Fe       0.91289000       3.61082000       1.96264000      -1.66570100       0.50807500      -4.76654600      -1.73620050       0.38192675      -4.81337673
Fe       0.97242000       3.25012000       3.83975000      -0.85629000      -1.23507100      -0.91491200      -1.10627167      -1.25492783      -0.15480354
Fe       1.43574000       3.84332000       5.84621000      -1.94378300      -0.72872400       4.94145300      -2.08065396      -0.64891573       4.75013613
Fe       0.45897000       5.99881000       1.32384000       1.86679900       1.45939200      -0.33976700       1.63392254       1.50983716      -0.17700330
Fe       0.05714000       6.25044000       6.01250000       0.66851500      -0.88142700       1.67028200       0.67625200      -0.76745994       1.69543692
Fe       1.87526000       7.05991000       7.27744000      -5.90957000       6.81146600       5.95768600      -5.73364468       7.24874042       6.00412049
Fe       4.21220000       0.80536000       3.81626000       0.44958900      -1.97725700       0.54591300       0.46583403      -1.88356232       0.40911853
Fe       2.64196000       0.75311000       5.88605000       0.80305000      -0.92688600      -1.50973400       0.50200365      -1.02887162      -1.54483159
Fe       2.51735000       4.27963000       7.86001000      -0.17185400       2.88247300       0.00075600      -0.00413532       2.92820980       0.15586333
Fe       2.46175000       4.76211000       4.38544000       2.27245000       6.36429500      -0.60000700       2.19290794       6.36851027      -0.74688482
Fe       3.99132000       4.46692000       6.09268000      -0.21521200      -1.96607600      -0.25853400      -0.17034924      -2.28630800      -0.20371207
Fe       4.03283000       6.20484000       2.50717000       0.32509400      -1.83048700       1.07686200       0.41216319      -1.76571231       1.05939342
Fe       2.62183000       8.12097000       1.25125000      -5.45108600      -1.04608100      -0.88869000      -5.50543063      -1.14065109      -0.64937459
Fe       2.34208000       7.49949000       3.33705000      -1.45221900       0.10179900       1.96325000      -1.26865013       0.17457165       1.64769779
Fe       4.67554000       0.98699000       8.35162000       1.97529500       0.95938300       0.07305200       1.66041367       0.87505785       0.29797702
Fe       4.68615000       2.28426000       1.60336000       6.03713100       4.39249100       1.56082500       6.25036419       4.32013879       1.13986247
Fe       4.95897000       4.28949000       0.91503000       1.24258400       3.77490300      -1.07876200       0.82961458       3.58289139      -1.23758597
Fe       5.62605000       3.84953000       3.25301000      -4.56775200       3.43217100       2.09526400      -4.53154517       3.55361821       1.89746384
Fe       5.63153000       5.70233000       4.67966000       0.04558900       0.36352900      -0.74034800       0.01758761      -0.04577595      -0.58958890
Fe       5.00954000       6.14620000       6.89198000       4.51113600      -2.60361300       1.43664400       4.57703189      -2.37118830       1.44061590
Fe       5.34723000       7.32984000       0.56425000       3.41130600      -7.55812200      -7.44238600       3.51617623      -7.03402841      -7.26504404
Fe       4.57141000       8.20633000       1.67615000      -2.51651100       6.57056000       9.11650700      -2.70411163       6.04890730       8.72665822
Fe       5.67084000       7.83697000       6.02451000      -0.02983000       3.57151200       0.33120700      -0.02735870       3.59842213       0.33194687
Fe       7.65837000       1.05332000       0.64336000       1.95813700       2.93603900      -3.62028800       1.88347822       2.90416659      -3.56236873
Fe       7.23579000       1.49494000       3.62009000       0.88838800      -1.50203300       3.00240400       0.93622874      -1.47653172       3.08751299
Fe       6.96409000       1.59543000       6.70415000       0.40175100      -2.57633900      -0.54943900       0.52635012      -2.54135837      -0.59050133
Fe       6.97946000       3.05325000       2.27831000       3.01329100      -2.85779700      -7.80747400       2.46947418      -2.95698749      -7.28700628
Fe       7.05854000       3.62734000       7.13255000       0.94483300       2.42104600       2.56329500       1.04081145       2.48772390       2.51092191
Fe       7.47490000       4.49325000       0.92243000      -3.13561000       0.06366500       0.11142200      -2.88064253       0.49135534      -0.16485866
Fe       7.76499000       5.40883000       4.05655000       3.42051700      -2.49950500       1.10150300       3.48750603      -2.64143531       1.12441981
Fe       6.91686000       6.16423000       2.38917000      -4.34160700       0.52717700      -3.24358900      -4.32133001       0.56319726      -3.21002236
Fe       7.31773000       7.39473000       4.73130000      -1.41907300       3.06948200       1.38572900      -1.48694738       2.98337658       1.41699903
B        1.63947000       5.44017000       2.85377000      -1.37965300       1.67099600      -0.34434500      -1.50960754       1.78101482      -0.57048208
B        3.47444000       1.29905000       1.69513000      -6.04542900      -7.46227000      -1.52467000      -5.89425386      -7.12625868      -1.07369143
B        2.31673000       1.42955000       3.77944000      -1.85652800      -2.14982900       3.21956500      -1.68923838      -1.98422439       3.42422600
B        3.17088000       0.01260000       8.16689000      -2.14308300      -0.12737100      -3.63430700      -1.99035707       0.11260793      -3.58031479
B        2.48887000       2.23189000       2.44876000      -1.30373000       3.96631200      -0.94871100      -0.89831674       3.81914487      -1.29447696
B        3.55016000       3.21990000       0.17024000       2.13469500      -3.52588700       0.23974700       2.12959496      -3.41743989       0.30867248
B        3.12966000       3.07291000       4.24572000      -6.99085300       0.34377600      -0.16579100      -7.07596054       0.14830419      -0.15886699
B        2.38358000       5.95301000       6.34325000       2.25901800      -8.76611800      -6.31465800       2.15524341      -9.25781033      -6.58169231
B        4.46260000       2.62992000       4.23823000       7.08507900      -1.75449200       0.40993300       7.17500590      -1.88194251       0.45539794
B        7.51183000       3.59374000       3.85724000       1.49621300      -1.20378300       3.39561400       1.55339784      -1.06675207       3.21697036
Si       0.50050000       1.66927000       5.10425000      -1.02554400      -2.67263500       2.61432900      -0.78509156      -2.91638493       2.64538572
Si       0.41923000       4.50138000       8.15701000       0.82744200      -0.47721100      -2.57541600       1.07131458      -0.40166541      -2.87640268
Si       2.90131000       4.25049000       1.93860000       2.71957100       0.04497600      -0.88170100       2.89160358      -0.01084323      -1.08172223
Si       3.74353000       6.85388000       5.19884000      -1.20766000       1.80214700      -2.20114300      -1.06320650       2.07630333      -2.12577452
Si       3.54209000       6.47938000       8.21357000      -0.45014500      -1.75854100       4.24377300      -0.53818972      -2.01327817       4.42723720
Si       4.55252000       1.74669000       6.40118000       0.28733400       0.20348600      -1.69136000       0.22598068       0.11944985      -1.60787199
Si       5.87020000       3.30923000       5.41310000       1.93974000       0.55942400      -1.14043100       1.56733032       0.80346524      -1.07481467
Si       6.68392000       0.09389000       2.07850000      -2.78148600      -1.30329400       2.70552900      -2.43739780      -1.23377067       2.80095670
Si       7.30980000       7.36953000       0.08595000       4.18267400      -0.22507900      -1.67891000       4.11269029      -0.49913166      -1.67953120
Si       8.41387000       7.50606000       2.97540000       5.08859000       1.78741200      -0.88875800       5.02800173       1.98797313      -0.89425041
54
Lattice="8.579999685 0.0 0.0 0.0 8.579999685 0.0 0.0 0.0 8.5799996" Properties=species:S:1:pos:R:3:REF_forces:R:3:MACE_forces:R:3 config_type=Fe34B10Si10 REF_energy=-359.84864784 MACE_energy=-360.1957236500982 pbc="T T T"
Fe       0.39531000       2.37288000       0.87042000       3.27925500       2.43832800      -1.60261100       3.20783185       2.70214923      -1.75332861
Fe       0.75383000       1.65209000       3.11094000       1.30783500      -0.34615400      -0.09267000       1.28511763      -0.87978096       0.11466244
Fe       1.33201000       3.79282000       7.26231000      -2.40668100      -1.18131200       0.32245500      -2.59877522      -1.11576660       0.27754912
Fe       0.64436000       4.41396000       2.97573000       2.42004200      -2.26182600       0.38963900       2.49342525      -2.08093431       0.31894339
Fe       0.14751000       6.42079000       3.51005000      -3.07002100       1.32407200      -2.30638400      -3.06684425       1.28083834      -2.38893501