54
Lattice="8.579999685 0.0 0.0 0.0 8.579999685 0.0 0.0 0.0 8.5799996" Properties=species:S:1:pos:R:3:REF_forces:R:3:MACE_forces:R:3 config_type=Fe34B10Si10 REF_energy=-352.89092233 MACE_energy=-353.27957558854337 pbc="T T T"
Fe       1.46495000       0.71583000       1.12880000       3.73230100      -3.41607500      -3.76209700       3.65281496      -3.43510211      -3.52025548
Fe       0.56244000       2.07917000       1.96452000      -3.31290700       4.06628900       2.54508600      -3.34443705       4.05797122       2.34448477
Fe       0.86636000       2.12990000       5.00906000     -10.85567700      -2.87102900      12.20968700     -10.87780596      -2.94430239      12.20615344
Fe       0.24697000       2.61233000       7.83061000      -0.37811800      -2.03816900      -0.08744800      -0.37488385      -2.05489629       0.08671649
Fe       0.35437000       4.66395000       8.16447000      -1.30300600       1.62250000       0.84662400      -1.35895527       1.77176150       0.77753551
Fe       0.83543000       8.00840000       3.01492000       5.54921000      -2.55787300       0.52513800       5.60716569      -2.63785789       0.46954919
Fe       2.03952000       7.84431000       6.63062000      -4.28706100       1.82495200      -1.68802900      -4.08116905       2.03123448      -1.72409125
Fe       3.34318000       0.11090000       2.96052000      -0.46571400      -0.35056300       0.37864800      -0.49757092      -0.16805067       0.45369359
Fe       3.26317000       2.11539000       1.48699000      -3.47884800      -0.03222100       0.61542300      -3.30201601      -0.25373509       0.25635984
Fe       4.14313000       2.75755000       3.31065000      -0.71378000      -2.73118300       1.93004800      -0.69869489      -2.44311526       1.88117156
Fe       2.55051000       2.67374000       7.19710000      -2.55215900      -0.93589000       1.77261600      -2.25628679      -1.02732464       1.69381057
Fe       3.61327000       2.86500000       5.46497000       1.55763200       0.20514300      -0.56676300       1.45783133       0.29280828      -0.28895941
Fe       2.62400000       4.72550000       1.39174000      -1.08585200      -1.19598700       0.59645400      -1.33300693      -0.97607435       0.67585116
Fe       2.20317000       5.21693000       3.87451000      -3.92870900      -4.38103900      -4.92199500      -3.92064920      -4.33202853      -5.07480730
Fe       3.93082000       4.37819000       8.08226000       1.07616800       0.44807800      -0.99700400       0.95054446       0.23451209      -1.00360824
Fe       2.44961000       7.01753000       1.08943000       0.32119000      -1.55635000       3.27006500       0.44121387      -1.59773922       3.35000080
Fe       3.02500000       6.15780000       5.08193000      -1.08486800       1.64126100       3.95415400      -0.32162683       1.73086432       4.05522761
Fe       5.77712000       0.44616000       0.16142000      -2.43333700       0.07175000       4.13474700      -2.41898400       0.41452645       4.17529744
Fe       5.66964000       0.14892000       2.95259000      -3.67617900       1.90971100       0.12919700      -3.69038859       1.65869492       0.31448505
Fe       5.39484000       2.66317000       1.55162000       4.08183700      -3.39937100       3.88213200       3.98776830      -3.76590933       4.14948874
Fe       5.91309000       3.40423000       8.31953000       8.90196200       5.48305700      -2.72562400       8.73537327       5.39986877      -2.75871288
Fe       4.96126000       4.63305000       3.41410000      -3.60269200      -2.00302700       2.25051900      -3.88909526      -2.36056949       2.39601380
Fe       5.11347000       6.81217000       1.78872000      -0.87770500       0.06714300      -1.61156800      -0.73048018       0.13027561      -1.65543188
Fe       5.00950000       6.45991000       8.24507000      -2.30619500      -0.19808200      -1.52355700      -2.20909903      -0.02636795      -1.76155312
Fe       4.64263000       7.71190000       5.75084000       2.50156800       4.23919200      -1.55456800       2.55785764       4.28182856      -1.60473439
Fe       7.32285000       0.33022000       5.03535000      -0.99210900      -0.59745100       4.73628300      -0.96173477      -0.35212244       4.69667577
Fe       6.75330000       1.32958000       7.05071000       0.53851300       2.01290400       0.36400700       0.48747681       1.86667328       0.32381895
Fe       6.82686000       2.53028000       3.66692000      -0.08907100      -0.12987400      -0.26318300       0.03494659      -0.19197234      -0.20343326
Fe       6.83617000       5.56618000       0.59386000       1.74434500       1.47371700      -3.32847200       1.78216713       1.75020582      -3.48611805
Fe       8.27091000       4.29855000       2.87718000       3.23308900       0.33980500       1.37352500       3.08560133       0.18144559       1.32402145
Fe       6.58774000       4.90718000       4.97515000      -1.87594500       0.58060600      -0.05143700      -2.07223603       0.59373924      -0.49880658
Fe       6.86773000       6.79187000       3.27473000       1.52763600      -2.76254700       0.67579100       1.47059737      -2.44470490       0.36435177
Fe       8.09083000       8.29691000       0.84396000      -4.18921500      -1.95965200       9.56442300      -4.18702600      -2.23382317       9.64132565
Fe       6.62133000       7.67903000       7.47205000      -3.65417600       1.51975600      -3.32990400      -3.98520924       1.29908480      -3.46930464
B        3.45077000       6.81738000       6.75435000       2.04131500      -2.79808300       3.80923700       1.96736936      -2.88211408       3.91205058
B        4.67436000       1.10514000       4.73414000       0.75036200       0.95391600      -0.52852700       0.79500124       0.95512332      -0.42542404
B        6.18153000       2.20088000       5.47737000      -4.49435700      -3.20609500      -2.27763700      -4.63197166      -3.15622396      -2.46832287
B        5.08133000       4.10197000       6.35983000       0.35152900       0.25548900      -0.65354500       0.48739858       0.27382150      -0.56537048
B        4.48663000       4.29393000       1.40792000      -0.27448100       1.04603100       0.21283300      -0.23668706       1.23085814       0.22285715
B        4.96286000       5.88068000       6.14703000       0.60492000      -1.85032800       0.29314600       0.46193576      -1.84700410       0.12525759
B        8.17242000       5.65216000       5.55863000       1.00443800       0.65677900      -0.69824300       1.07067468       0.69843143      -0.22982712
B        7.98743000       6.92663000       6.60530000       5.86774900       2.58695800      -4.05103700       5.77099769       2.29961813      -3.53750754
B        7.10769000       5.72812000       6.91109000      -2.33709700      -3.34606800       1.34633400      -2.13014667      -3.42679568       1.49970387
B        7.81665000       6.81498000       8.33858000       5.04350100      -2.41043400       0.97359300       4.99086527      -2.58252927       0.49327969
Si       0.06983000       0.14925000       7.74742000       4.12649000       2.60901100      -8.87608100       3.96698656       2.57549496      -8.81132684
Si       1.93337000       2.41223000       3.74634000      10.14534600       2.98113100     -12.18526000      10.21458121       3.04512368     -12.01359255
Si       0.75978000       6.02813000       1.69309000      -4.13401100      -0.74920300       1.02787300      -4.13259598      -0.87348545       0.95936793
Si       2.22023000       5.10313000       7.16329000      -1.58663400       1.19675500      -1.89967800      -1.66585739       1.16777225      -1.84312691
Si       3.27754000       8.17117000       8.35443000       4.04667900       4.58101600      -2.24829100       3.90903605       4.51290882      -2.36957314
Si       4.48145000       2.18337000       8.34202000      -5.72220500      -5.96162700      -4.99603400      -5.45371171      -5.89865155      -5.15790627
Si       6.36439000       4.54151000       2.12641000       2.28764700      -2.33178900       1.39384200       2.57694419      -2.14655623       1.24788868
Si       4.52267000       6.51460000       3.75633000       0.42177200       5.22743800       1.25328700       0.12380781       5.31452081       1.34723997
Si       7.68278000       0.22257000       3.11016000      -0.17295300       4.89916800      -3.86478000      -0.22754841       4.85936751      -3.93103442
Si       7.35363000       3.38410000       6.13231000       4.40786200       1.27045000       2.62604800       4.40291757       1.43052089       2.95915004
54
Lattice="8.579999685 0.0 0.0 0.0 8.579999685 0.0 0.0 0.0 8.5799996" Properties=species:S:1:pos:R:3:REF_forces:R:3:MACE_forces:R:3 config_type=Fe34B10Si10 REF_energy=-354.71875992 MACE_energy=-355.37947513811605 pbc="T T T"
Fe       0.43313000       1.19321000       2.96848000       1.47291300       2.99028000       0.61180900       1.46425733       2.89342606       0.38309421
Fe       0.91365000       1.12516000       8.09995000       2.76260400      -2.00335600       1.20968300       2.38412913      -1.83265886       1.08552516
Fe       1.17142000       2.67870000       5.23446000      -1.90323000       6.04651700       0.58026800      -1.68330951       6.13639386       0.36602185
Fe       0.60772000       3.85484000       0.87278000       2.66909500       4.89444800       4.53699300       2.65370745       5.10085301       4.12021427
Fe       1.41565000       3.44858000       3.01161000      -0.29549500       2.03729500      -0.74017400       0.00656705       1.92694398      -0.66914801
Fe       0.04226000       2.91249000       8.09734000      -3.39897200      -2.84207300      -2.69442200      -2.77685159      -3.00940535      -2.44955159
Fe       1.33282000       7.09057000       5.22634000      -0.45239700      -1.35392500       0.92503500      -0.23386650      -1.46922719       0.94670449
Fe       2.06045000       7.92051000       0.98063000      -3.11321000      -0.30108300      -2.49280600      -3.27997655      -0.43525087      -2.48994789
Fe       2.03627000       8.24295000       3.50701000      -1.42216600       4.38122900       0.88517600      -1.52764818       4.10289516       0.63181560
Fe       0.01253000       8.02686000       7.00667000       2.58679700       0.98610200     -11.80201700       2.47323001       0.87478885     -11.96786733
Fe       3.00353000       0.57289000       6.13981000      -1.03922300       0.18357300       0.93137300      -0.77520847       0.14741417       0.98403848
Fe       3.69949000       2.65196000       7.51811000       2.76433000      -4.34399200      -3.80269000       2.60552848      -4.12929693      -3.68171448
Fe       2.94478000       6.44154000       3.03987000       7.21319500      -3.66655800      -1.17614100       6.99163186      -3.45608397      -0.98758621
Fe       2.94309000       5.75189000       6.64956000      -6.24071800      -0.74678300       3.86021800      -6.43194596      -0.64308119       4.01078056
Fe       3.71160000       8.39321000       1.86324000       2.24845700      -0.43546600       0.28887200       2.36641517      -0.08379937       0.68079308
Fe       4.07810000       8.43915000       4.32840000       2.88035800       1.28304800      -0.49181300       2.84885088       1.31055727      -0.78918606
Fe       5.57499000       0.73262000       6.31633000      -3.12774100      -1.68249800      -0.98058200      -2.78170710      -1.73860280      -0.92562286
Fe       4.70712000       1.94493000       1.65492000      -2.04675700       4.97917500      -3.67899600      -2.12381404       4.77924064      -3.42454968
Fe       4.73401000       4.18392000       1.24748000       0.71501700       1.80608500      -0.06999200       0.71283575       1.96986963      -0.13256668
Fe       4.56687000       4.22266000       4.39618000       0.73801700       3.32591500      -2.10569900       0.50946013       3.16701985      -2.13878169
Fe       4.51224000       4.61167000       7.05684000       2.53211900      -0.41024200       0.53825400       2.96021632      -0.72661554       0.48378104
Fe       6.32808000       6.81945000       4.24288000      -3.20445400      -0.33519400      -1.28892300      -2.80840434      -0.23405877      -1.07261912
Fe       6.22240000       7.17309000       0.16230000      -3.30904600      -2.75215800       1.90373500      -3.49129751      -2.96074940       2.03414940
Fe       4.54224000       7.44382000       7.03838000       0.17895600      -5.02037800      -8.74618400       0.31450784      -5.28817284      -8.86908315
Fe       4.73272000       8.55832000       8.35561000      -0.10588400       8.96287400       6.54083400      -0.33377316       9.33846415       6.19245043
Fe       7.67285000       2.82429000       2.17742000      -2.12886900      -0.76272600      -2.06587500      -2.13205294      -0.82282776      -1.97318415
Fe       6.74071000       1.77406000       4.33655000       0.47479500       0.50025500      -0.42349800       0.07488636       0.40677972      -0.44621945
Fe       7.16362000       1.61896000       6.68131000       5.11373900       1.83737400       0.70818800       4.69194713       1.61515316       0.63007772
Fe       6.73653000       4.13840000       7.84564000       0.19062300       0.32905600       3.59274800       0.17393307       0.46904730       3.60722842
Fe       6.61248000       5.35948000       2.44590000       0.96755600      -0.77403900      -0.47053600       0.85580701      -0.66811710      -0.43964480
Fe       8.39074000       4.95678000       4.82580000       0.50677700       3.21370700       1.22596300       0.57631674       3.14929996       1.08402277
Fe       6.62275000       6.29700000       6.29237000       0.91106900      -0.58785400       1.74696000       0.82891925      -0.49012427       1.60604961
Fe       8.00875000       8.14674000       2.12563000      -1.25903800      -1.94608200      -3.37077000      -0.86159819      -1.90655026      -3.43400503
Fe       7.96861000       8.10559000       4.08816000       1.24434400       0.03207600       4.40361200       0.72752071       0.04882784       4.57246565
B        3.14587000       1.61638000       2.59818000      -3.96044800      -1.57388800      -2.24367700      -3.98760876      -1.48425919      -2.01911960
B        4.07212000       1.93087000       3.78701000       0.55534200       0.12762300      -3.25123200       0.38046595       0.16555058      -3.22106168
B        2.24412000       1.90783000       4.05913000      -1.80380000      -9.70850100      -5.48536600      -1.88260851     -10.03720810      -5.62930679
B        2.90130000       3.06657000       4.45062000       2.48509300       7.60479000      -1.50334300       2.83970690       7.25021969      -1.50870509
B        2.82587000       3.80138000       5.80651000       0.21675600       2.27927400       3.92227300       0.26980434       2.18321506       3.93628618
B        2.60929000       5.04297000       1.66311000       0.12617300      -0.77075900      -0.46531300      -0.02538384      -0.83093923      -0.45675197
B        2.47198000       4.95014000       4.32601000      -0.76752800      -1.31946700       0.35153300      -0.80090479      -1.21761178       0.42902262
B        2.73354000       7.81887000       7.66829000      -1.47869400      -0.15377200       0.00458000      -1.53285083      -0.16932858       0.22290902
B        5.68071000       2.28134000       7.79544000      -0.95924500       0.41857400       1.11780500      -0.96968532       0.38776790       1.07748727
B        7.77536000       3.70665000       3.76574000      -0.44877700      -1.48394500      -0.38974400      -0.54074127      -1.41260805      -0.08247754
Si       0.79518000       0.92195000       5.77957000      -1.66645900      -4.94136200      -1.10925300      -1.61918605      -5.00502743      -0.96503239
Si       0.88055000       4.20706000       6.73551000       1.15626000       3.58432200      -0.32349000       1.11131536       3.68140243      -0.22465816
Si       1.15025000       6.44729000       2.43826000      -7.77651300      -1.83655100      -1.54918700      -7.81240514      -1.71775411      -1.70263313
Si       2.82820000       3.29548000       0.50208000      -4.05499500       1.58525200       5.32597100      -4.06328486       1.39486099       5.24543420
Si       4.14031000       6.38272000       0.30005000      -2.16949800      -2.44928300       2.57761000      -2.31414512      -2.39754973       2.46699560
Si       3.68345000       6.43010000       5.01209000       3.98893100       0.98565200      -2.13453700       3.85978254       1.16673960      -2.16409746
Si       5.73751000       0.59059000       2.53265000       5.08228400      -4.90021500       2.23852200       5.10354404      -4.85549303       2.50065822
Si       4.51163000       2.47994000       5.36819000       2.60737700      -2.86786400       7.12589500       2.80128488      -2.59327850       7.08746859
Si       6.43436000       3.75222000       5.86206000       1.38008400       0.66155200      -3.64612400       1.49910699       0.72176304      -3.74317128
Si       8.06432000       7.52318000       8.55473000       2.36409700      -3.06603600      11.34847700       2.70457984      -2.77281369      11.22281883
18
Lattice="6.5 0.0 0.0 0.0 6.5 0.0 0.0 0.0 6.5" Properties=species:S:1:pos:R:3:REF_forces:R:3:MACE_forces:R:3 config_type=Fe12B3Si3 REF_energy=-113.87843945 MACE_energy=-113.06927017556393 pbc="T T T"
Fe       5.40234000       5.43492000       1.53729000      -1.39532100       2.04028400       0.71142300      -1.01010798       1.82780289       0.69792467
Fe       2.09750000       2.10361000       0.54730000       2.35673700      -0.33103000       1.27254800       2.55543315      -0.10811342       1.34441189
Fe       2.84360000       1.73250000       3.81271000       2.28004000      -1.18251600      -0.27344700       2.23370336      -0.98801029      -0.20962242
Fe       0.77541000       4.93717000       1.04317000       1.56096300      -3.83372900       1.76362000       1.23231639      -3.38805710       1.59590999
Fe       0.07665000       3.70431000       3.74351000      -0.75952900      -0.39175400      -2.23189700      -1.19989923      -0.47942376      -2.25494670
Fe       4.77171000       3.58949000       4.78220000      -1.99219600      -4.62409700       0.48420500      -1.63437407      -4.51601028       0.37879592
Fe       4.12430000       1.49867000       1.46476000       0.29771700      -2.38794700       0.28396300       0.26220204      -2.66433721       0.10896483
Fe       0.95387000       5.17746000       5.28728000      -0.57085000      -0.50160400      -1.80733600      -0.93723212      -0.66626570      -1.36751530
Fe       1.93602000       3.09888000       2.36598000      -0.08855100       0.43128300      -0.27209000      -0.21991049       0.48136219      -0.62706455
Fe       5.69037000       1.28357000       4.20026000      -0.40866000      -0.49067900       0.18976600      -0.83659194      -0.31787966       0.23281682
Fe       1.94321000       2.86141000       5.39871000      -0.55906500       0.73218900      -1.80086600      -0.46114466       0.67447727      -1.94172771
Fe       4.33122000       5.38124000       5.25469000      -0.73272900       4.56545400       1.52017900      -0.55321764       4.35652770       1.56499428
B        0.37598000       1.64060000       1.21420000      -3.21263000       2.85095800       0.76078000      -2.98736022       2.70346292       0.82811354
B        1.88110000       4.04794000       3.96741000       2.48956600       2.45119300      -0.32261600       2.66895739       2.42768948      -0.27461136
B        3.63878000       0.94242000       5.41981000      -0.01444500       0.67937600       0.95779200       0.12504889       0.81185589       1.09665317
Si       1.19380000       0.26963000       0.19686000       0.54051800       0.24528300      -1.93219100       0.63285969       0.00355313      -1.83273960
Si       4.57825000       3.47658000       1.16117000       0.15934200       1.26766700      -0.81102600       0.18363890       1.50831737      -0.79814704
Si       1.09558000       0.76720000       2.75124000       0.04909300      -1.52033200       1.50719200      -0.05432144      -1.66695143       1.45778958
54
Lattice="8.579999685 0.0 0.0 0.0 8.579999685 0.0 0.0 0.0 8.5799996" Properties=species:S:1:pos:R:3:REF_forces:R:3:MACE_forces:R:3 config_type=Fe34B10Si10 REF_energy=-356.0869274 MACE_energy=-356.9547558952841 pbc="T T T"
Fe       0.92877000       1.08311000       2.12831000      -0.53214900      -1.15432400       0.53007800      -0.72325579      -1.19124566       0.39906851
Fe       1.12794000       0.45096000       7.37327000      -2.86345100       2.18226700       1.45805300      -2.82465539       1.97134024       1.43866805
Fe       0.91289000       3.61082000       1.96264000      -1.66570100       0.50807500      -4.76654600      -1.71910128       0.37345273      -4.80566419
Fe       0.97242000       3.25012000       3.83975000      -0.85629000      -1.23507100      -0.91491200      -1.09483804      -1.24427913      -0.17469914
Fe       1.43574000       3.84332000       5.84621000      -1.94378300      -0.72872400       4.94145300      -2.07867786      -0.63180456       4.72201072
Fe       0.45897000       5.99881000       1.32384000       1.86679900       1.45939200      -0.33976700       1.63559512       1.52264756      -0.17149885
Fe       0.05714000       6.25044000       6.01250000       0.66851500      -0.88142700       1.67028200       0.69183247      -0.77014354       1.71177557
Fe       1.87526000       7.05991000       7.27744000      -5.90957000       6.81146600       5.95768600      -5.74420572       7.23220697       5.99593708
Fe       4.21220000       0.80536000       3.81626000       0.44958900      -1.97725700       0.54591300       0.48120888      -1.89131167       0.42366020
Fe       2.64196000       0.75311000       5.88605000       0.80305000      -0.92688600      -1.50973400       0.51346542      -1.03496388      -1.55752947
Fe       2.51735000       4.27963000       7.86001000      -0.17185400       2.88247300       0.00075600      -0.00252588       2.94268787       0.17087385
Fe       2.46175000       4.76211000       4.38544000       2.27245000       6.36429500      -0.60000700       2.18601637       6.35428671      -0.71899979
Fe       3.99132000       4.46692000       6.09268000      -0.21521200      -1.96607600      -0.25853400      -0.17068632      -2.27230464      -0.20293743
Fe       4.03283000       6.20484000       2.50717000       0.32509400      -1.83048700       1.07686200       0.41504753      -1.76621882       1.07280211
Fe       2.62183000       8.12097000       1.25125000      -5.45108600      -1.04608100      -0.88869000      -5.50890454      -1.13098724      -0.64905785
Fe       2.34208000       7.49949000       3.33705000      -1.45221900       0.10179900       1.96325000      -1.25817162       0.17888789       1.64296242
Fe       4.67554000       0.98699000       8.35162000       1.97529500       0.95938300       0.07305200       1.65925811       0.86289071       0.31217827
Fe       4.68615000       2.28426000       1.60336000       6.03713100       4.39249100       1.56082500       6.24951112       4.32366908       1.15411149
Fe       4.95897000       4.28949000       0.91503000       1.24258400       3.77490300      -1.07876200       0.81048342       3.57114160      -1.24405568
Fe       5.62605000       3.84953000       3.25301000      -4.56775200       3.43217100       2.09526400      -4.53788214       3.55443416       1.89901964
Fe       5.63153000       5.70233000       4.67966000       0.04558900       0.36352900      -0.74034800       0.01459038      -0.04889679      -0.59455206
Fe       5.00954000       6.14620000       6.89198000       4.51113600      -2.60361300       1.43664400       4.57812111      -2.37703631       1.43986307
Fe       5.34723000       7.32984000       0.56425000       3.41130600      -7.55812200      -7.44238600       3.48646044      -7.02881676      -7.24748932
Fe       4.57141000       8.20633000       1.67615000      -2.51651100       6.57056000       9.11650700      -2.69231794       6.05832206       8.70796404
Fe       5.67084000       7.83697000       6.02451000      -0.02983000       3.57151200       0.33120700      -0.04226286       3.61437549       0.33892281
Fe       7.65837000       1.05332000       0.64336000       1.95813700       2.93603900      -3.62028800       1.88600827       2.92165288      -3.55543648
Fe       7.23579000       1.49494000       3.62009000       0.88838800      -1.50203300       3.00240400       0.94433401      -1.49371266       3.08211385
Fe       6.96409000       1.59543000       6.70415000       0.40175100      -2.57633900      -0.54943900       0.52296330      -2.54454608      -0.57797724
Fe       6.97946000       3.05325000       2.27831000       3.01329100      -2.85779700      -7.80747400       2.46625315      -2.95268769      -7.27971383
Fe       7.05854000       3.62734000       7.13255000       0.94483300       2.42104600       2.56329500       1.03848930       2.48553827       2.50539971
Fe       7.47490000       4.49325000       0.92243000      -3.13561000       0.06366500       0.11142200      -2.88874113       0.47770337      -0.18721205
Fe       7.76499000       5.40883000       4.05655000       3.42051700      -2.49950500       1.10150300       3.49070529      -2.65126250       1.11816864
Fe       6.91686000       6.16423000       2.38917000      -4.34160700       0.52717700      -3.24358900      -4.32034893       0.57954310      -3.20666674
Fe       7.31773000       7.39473000       4.73130000      -1.41907300       3.06948200       1.38572900      -1.47801953       3.00117563       1.40488968
B        1.63947000       5.44017000       2.85377000      -1.37965300       1.67099600      -0.34434500      -1.51474775       1.78130465      -0.58496808
B        3.47444000       1.29905000       1.69513000      -6.04542900      -7.46227000      -1.52467000      -5.89491976      -7.14801610      -1.10095783
B        2.31673000       1.42955000       3.77944000      -1.85652800      -2.14982900       3.21956500      -1.70067665      -1.98859097       3.43399243
B        3.17088000       0.01260000       8.16689000      -2.14308300      -0.12737100      -3.63430700      -1.98929587       0.11440185      -3.57759740
B        2.48887000       2.23189000       2.44876000      -1.30373000       3.96631200      -0.94871100      -0.89871844       3.82729861      -1.29450220
B        3.55016000       3.21990000       0.17024000       2.13469500      -3.52588700       0.23974700       2.14299312      -3.42783172       0.30752480
B        3.12966000       3.07291000       4.24572000      -6.99085300       0.34377600      -0.16579100      -7.09847943       0.14330662      -0.17004950
B        2.38358000       5.95301000       6.34325000       2.25901800      -8.76611800      -6.31465800       2.16223192      -9.24542309      -6.58517587
B        4.46260000       2.62992000       4.23823000       7.08507900      -1.75449200       0.40993300       7.18439813      -1.86534343       0.45538418
B        7.51183000       3.59374000       3.85724000       1.49621300      -1.20378300       3.39561400       1.55010899      -1.07765123       3.22569969
Si       0.50050000       1.66927000       5.10425000      -1.02554400      -2.67263500       2.61432900      -0.79015043      -2.91447577       2.62785885
Si       0.41923000       4.50138000       8.15701000       0.82744200      -0.47721100      -2.57541600       1.06740468      -0.40089684      -2.85936627
Si       2.90131000       4.25049000       1.93860000       2.71957100       0.04497600      -0.88170100       2.89764257      -0.01306490      -1.08023889
Si       3.74353000       6.85388000       5.19884000      -1.20766000       1.80214700      -2.20114300      -1.06637960       2.07051399      -2.13774345
Si       3.54209000       6.47938000       8.21357000      -0.45014500      -1.75854100       4.24377300      -0.53902821      -2.00753859       4.43697105
Si       4.55252000       1.74669000       6.40118000       0.28733400       0.20348600      -1.69136000       0.23874129       0.12924796      -1.62310321
Si       5.87020000       3.30923000       5.41310000       1.93974000       0.55942400      -1.14043100       1.56830884       0.79231189      -1.07448846
Si       6.68392000       0.09389000       2.07850000      -2.78148600      -1.30329400       2.70552900      -2.45157346      -1.23853093       2.81031376
Si       7.30980000       7.36953000       0.08595000       4.18267400      -0.22507900      -1.67891000       4.11606195      -0.50661842      -1.67803855
Si       8.41387000       7.50606000       2.97540000       5.08859000       1.78741200      -0.88875800       5.03032938       1.97985804      -0.89841466
54
Lattice="8.579999685 0.0 0.0 0.0 8.579999685 0.0 0.0 0.0 8.5799996" Properties=species:S:1:pos:R:3:REF_forces:R:3:MACE_forces:R:3 config_type=Fe34B10Si10 REF_energy=-359.84864784 MACE_energy=-360.25307483889145 pbc="T T T"
Fe       0.39531000       2.37288000       0.87042000       3.27925500       2.43832800      -1.60261100       3.21168438       2.69978957      -1.76327026
Fe       0.75383000       1.65209000       3.11094000       1.30783500      -0.34615400      -0.09267000       1.28449716      -0.87281843       0.11534408
Fe       1.33201000       3.79282000       7.26231000      -2.40668100      -1.18131200       0.32245500      -2.58395546      -1.11129641       0.26228098
Fe       0.64436000       4.41396000       2.97573000       2.42004200      -2.26182600       0.38963900       2.49449626      -2.09210779       0.30151198
Fe       0.14751000       6.42079000       3.51005000      -3.07002100       1.32407200      -2.30638400      -3.08316501       1.29656426      -2.41675558