54
Lattice="8.579999685 0.0 0.0 0.0 8.579999685 0.0 0.0 0.0 8.5799996" Properties=species:S:1:pos:R:3:REF_forces:R:3:MACE_forces:R:3 config_type=Fe34B10Si10 REF_energy=-352.89092233 MACE_energy=-352.9660314841217 pbc="T T T"
Fe       1.46495000       0.71583000       1.12880000       3.73230100      -3.41607500      -3.76209700       3.66557063      -3.41330790      -3.51995561
Fe       0.56244000       2.07917000       1.96452000      -3.31290700       4.06628900       2.54508600      -3.25324776       3.91526703       2.26350803
Fe       0.86636000       2.12990000       5.00906000     -10.85567700      -2.87102900      12.20968700     -10.90360068      -2.95423624      12.21297239
Fe       0.24697000       2.61233000       7.83061000      -0.37811800      -2.03816900      -0.08744800      -0.41220572      -1.92582795       0.06347453
Fe       0.35437000       4.66395000       8.16447000      -1.30300600       1.62250000       0.84662400      -1.36729860       1.67720379       0.80203228
Fe       0.83543000       8.00840000       3.01492000       5.54921000      -2.55787300       0.52513800       5.71355829      -2.54097678       0.42727346
Fe       2.03952000       7.84431000       6.63062000      -4.28706100       1.82495200      -1.68802900      -4.13698736       1.99805852      -1.65211058
Fe       3.34318000       0.11090000       2.96052000      -0.46571400      -0.35056300       0.37864800      -0.50651061      -0.22507520       0.47435382
Fe       3.26317000       2.11539000       1.48699000      -3.47884800      -0.03222100       0.61542300      -3.37607578      -0.27952303       0.20998034
Fe       4.14313000       2.75755000       3.31065000      -0.71378000      -2.73118300       1.93004800      -0.62405559      -2.46782652       1.90874395
Fe       2.55051000       2.67374000       7.19710000      -2.55215900      -0.93589000       1.77261600      -2.29358649      -1.10007783       1.71694881
Fe       3.61327000       2.86500000       5.46497000       1.55763200       0.20514300      -0.56676300       1.48397048       0.27847634      -0.32331726
Fe       2.62400000       4.72550000       1.39174000      -1.08585200      -1.19598700       0.59645400      -1.38912405      -0.95605840       0.70956183
Fe       2.20317000       5.21693000       3.87451000      -3.92870900      -4.38103900      -4.92199500      -3.88422434      -4.32680650      -4.97301321
Fe       3.93082000       4.37819000       8.08226000       1.07616800       0.44807800      -0.99700400       0.98627240       0.28477501      -0.97907500
Fe       2.44961000       7.01753000       1.08943000       0.32119000      -1.55635000       3.27006500       0.41163364      -1.59675559       3.30014141
Fe       3.02500000       6.15780000       5.08193000      -1.08486800       1.64126100       3.95415400      -0.54463910       1.66037303       4.03860702
Fe       5.77712000       0.44616000       0.16142000      -2.43333700       0.07175000       4.13474700      -2.47066736       0.41525607       4.21914145
Fe       5.66964000       0.14892000       2.95259000      -3.67617900       1.90971100       0.12919700      -3.71497348       1.63786142       0.31918942
Fe       5.39484000       2.66317000       1.55162000       4.08183700      -3.39937100       3.88213200       4.06636100      -3.69494574       4.07361324
Fe       5.91309000       3.40423000       8.31953000       8.90196200       5.48305700      -2.72562400       8.68858607       5.39445636      -2.64761758
Fe       4.96126000       4.63305000       3.41410000      -3.60269200      -2.00302700       2.25051900      -3.74830145      -2.22763417       2.45107617
Fe       5.11347000       6.81217000       1.78872000      -0.87770500       0.06714300      -1.61156800      -0.71784828       0.06494710      -1.60182949
Fe       5.00950000       6.45991000       8.24507000      -2.30619500      -0.19808200      -1.52355700      -2.32584268       0.01733095      -1.73159370
Fe       4.64263000       7.71190000       5.75084000       2.50156800       4.23919200      -1.55456800       2.56554475       4.35211816      -1.62978847
Fe       7.32285000       0.33022000       5.03535000      -0.99210900      -0.59745100       4.73628300      -1.00988384      -0.35843395       4.80070836
Fe       6.75330000       1.32958000       7.05071000       0.53851300       2.01290400       0.36400700       0.53104018       1.83750405       0.35811722
Fe       6.82686000       2.53028000       3.66692000      -0.08907100      -0.12987400      -0.26318300      -0.02693987      -0.19213127      -0.25146272
Fe       6.83617000       5.56618000       0.59386000       1.74434500       1.47371700      -3.32847200       1.84306193       1.65749595      -3.50810438
Fe       8.27091000       4.29855000       2.87718000       3.23308900       0.33980500       1.37352500       3.19993810       0.18587251       1.31608804
Fe       6.58774000       4.90718000       4.97515000      -1.87594500       0.58060600      -0.05143700      -2.14231109       0.65040142      -0.41233263
Fe       6.86773000       6.79187000       3.27473000       1.52763600      -2.76254700       0.67579100       1.39698212      -2.46641846       0.35495260
Fe       8.09083000       8.29691000       0.84396000      -4.18921500      -1.95965200       9.56442300      -4.12246712      -2.30616405       9.66860671
Fe       6.62133000       7.67903000       7.47205000      -3.65417600       1.51975600      -3.32990400      -3.95598928       1.23581719      -3.47789827
B        3.45077000       6.81738000       6.75435000       2.04131500      -2.79808300       3.80923700       1.94687765      -2.80333841       4.00744683
B        4.67436000       1.10514000       4.73414000       0.75036200       0.95391600      -0.52852700       0.82855947       0.92161145      -0.46152153
B        6.18153000       2.20088000       5.47737000      -4.49435700      -3.20609500      -2.27763700      -4.75329830      -3.15372015      -2.52241744
B        5.08133000       4.10197000       6.35983000       0.35152900       0.25548900      -0.65354500       0.54982029       0.29874127      -0.57124314
B        4.48663000       4.29393000       1.40792000      -0.27448100       1.04603100       0.21283300      -0.26550207       1.22991329       0.14269913
B        4.96286000       5.88068000       6.14703000       0.60492000      -1.85032800       0.29314600       0.57454561      -1.94543325       0.15117719
B        8.17242000       5.65216000       5.55863000       1.00443800       0.65677900      -0.69824300       1.08036208       0.67224383      -0.32174813
B        7.98743000       6.92663000       6.60530000       5.86774900       2.58695800      -4.05103700       5.85864749       2.40697817      -3.65710326
B        7.10769000       5.72812000       6.91109000      -2.33709700      -3.34606800       1.34633400      -2.24758283      -3.43369439       1.39451747
B        7.81665000       6.81498000       8.33858000       5.04350100      -2.41043400       0.97359300       5.14873061      -2.45145850       0.66901517
Si       0.06983000       0.14925000       7.74742000       4.12649000       2.60901100      -8.87608100       3.99673575       2.63314842      -8.87662776
Si       1.93337000       2.41223000       3.74634000      10.14534600       2.98113100     -12.18526000      10.23478777       3.07425157     -12.02463874
Si       0.75978000       6.02813000       1.69309000      -4.13401100      -0.74920300       1.02787300      -4.11601913      -0.88105673       0.98397797
Si       2.22023000       5.10313000       7.16329000      -1.58663400       1.19675500      -1.89967800      -1.76752892       1.13801207      -1.94235255
Si       3.27754000       8.17117000       8.35443000       4.04667900       4.58101600      -2.24829100       3.90680421       4.55728736      -2.42452459
Si       4.48145000       2.18337000       8.34202000      -5.72220500      -5.96162700      -4.99603400      -5.50554327      -5.82646869      -5.20061222
Si       6.36439000       4.54151000       2.12641000       2.28764700      -2.33178900       1.39384200       2.59879602      -2.22385264       1.29796400
Si       4.52267000       6.51460000       3.75633000       0.42177200       5.22743800       1.25328700       0.12412250       5.34408829       1.34892424
Si       7.68278000       0.22257000       3.11016000      -0.17295300       4.89916800      -3.86478000      -0.25322583       4.82734871      -3.96755701
Si       7.35363000       3.38410000       6.13231000       4.40786200       1.27045000       2.62604800       4.43417183       1.38438305       2.99363218
54
Lattice="8.579999685 0.0 0.0 0.0 8.579999685 0.0 0.0 0.0 8.5799996" Properties=species:S:1:pos:R:3:REF_forces:R:3:MACE_forces:R:3 config_type=Fe34B10Si10 REF_energy=-354.71875992 MACE_energy=-355.14031885729116 pbc="T T T"
Fe       0.43313000       1.19321000       2.96848000       1.47291300       2.99028000       0.61180900       1.63122882       2.98425217       0.37182506
Fe       0.91365000       1.12516000       8.09995000       2.76260400      -2.00335600       1.20968300       2.45847179      -1.99773308       1.07975772
Fe       1.17142000       2.67870000       5.23446000      -1.90323000       6.04651700       0.58026800      -1.69569370       6.27101274       0.60706568
Fe       0.60772000       3.85484000       0.87278000       2.66909500       4.89444800       4.53699300       2.63581139       5.12542961       4.17298742
Fe       1.41565000       3.44858000       3.01161000      -0.29549500       2.03729500      -0.74017400      -0.19628234       1.90116841      -0.69554950
Fe       0.04226000       2.91249000       8.09734000      -3.39897200      -2.84207300      -2.69442200      -2.93433157      -2.84710780      -2.35864312
Fe       1.33282000       7.09057000       5.22634000      -0.45239700      -1.35392500       0.92503500      -0.29173280      -1.49219789       0.86055986
Fe       2.06045000       7.92051000       0.98063000      -3.11321000      -0.30108300      -2.49280600      -3.23522761      -0.47783752      -2.33232300
Fe       2.03627000       8.24295000       3.50701000      -1.42216600       4.38122900       0.88517600      -1.57981543       4.18927900       0.57309995
Fe       0.01253000       8.02686000       7.00667000       2.58679700       0.98610200     -11.80201700       2.52582559       0.82892351     -11.92901422
Fe       3.00353000       0.57289000       6.13981000      -1.03922300       0.18357300       0.93137300      -0.73441569       0.02756969       1.08125652
Fe       3.69949000       2.65196000       7.51811000       2.76433000      -4.34399200      -3.80269000       2.57607695      -4.18114568      -3.66135827
Fe       2.94478000       6.44154000       3.03987000       7.21319500      -3.66655800      -1.17614100       7.14069194      -3.43769377      -1.01290967
Fe       2.94309000       5.75189000       6.64956000      -6.24071800      -0.74678300       3.86021800      -6.50427459      -0.72696945       3.96440879
Fe       3.71160000       8.39321000       1.86324000       2.24845700      -0.43546600       0.28887200       2.38475146      -0.24850123       0.53025117
Fe       4.07810000       8.43915000       4.32840000       2.88035800       1.28304800      -0.49181300       2.92780834       1.41674924      -0.79871391
Fe       5.57499000       0.73262000       6.31633000      -3.12774100      -1.68249800      -0.98058200      -2.82155542      -1.70569337      -0.98573018
Fe       4.70712000       1.94493000       1.65492000      -2.04675700       4.97917500      -3.67899600      -2.08514951       4.87781094      -3.47901497
Fe       4.73401000       4.18392000       1.24748000       0.71501700       1.80608500      -0.06999200       0.69490217       1.95174047      -0.12600140
Fe       4.56687000       4.22266000       4.39618000       0.73801700       3.32591500      -2.10569900       0.58527292       3.43130765      -2.27220483
Fe       4.51224000       4.61167000       7.05684000       2.53211900      -0.41024200       0.53825400       2.96096064      -0.68409818       0.60082101
Fe       6.32808000       6.81945000       4.24288000      -3.20445400      -0.33519400      -1.28892300      -2.82108656      -0.24052198      -1.06332276
Fe       6.22240000       7.17309000       0.16230000      -3.30904600      -2.75215800       1.90373500      -3.50615201      -2.97827766       1.99763390
Fe       4.54224000       7.44382000       7.03838000       0.17895600      -5.02037800      -8.74618400       0.21019642      -5.23720615      -8.73527565
Fe       4.73272000       8.55832000       8.35561000      -0.10588400       8.96287400       6.54083400      -0.27206583       9.25678290       6.16200651
Fe       7.67285000       2.82429000       2.17742000      -2.12886900      -0.76272600      -2.06587500      -2.14507135      -0.76181474      -1.91901705
Fe       6.74071000       1.77406000       4.33655000       0.47479500       0.50025500      -0.42349800       0.10189451       0.47327860      -0.49576982
Fe       7.16362000       1.61896000       6.68131000       5.11373900       1.83737400       0.70818800       4.78880630       1.61498056       0.61784120
Fe       6.73653000       4.13840000       7.84564000       0.19062300       0.32905600       3.59274800       0.32360692       0.45497592       3.65736872
Fe       6.61248000       5.35948000       2.44590000       0.96755600      -0.77403900      -0.47053600       0.87108860      -0.75250762      -0.43562676
Fe       8.39074000       4.95678000       4.82580000       0.50677700       3.21370700       1.22596300       0.57977130       3.18497585       1.08348289
Fe       6.62275000       6.29700000       6.29237000       0.91106900      -0.58785400       1.74696000       0.84962832      -0.47260297       1.54024185
Fe       8.00875000       8.14674000       2.12563000      -1.25903800      -1.94608200      -3.37077000      -0.86756900      -1.94142673      -3.50686144
Fe       7.96861000       8.10559000       4.08816000       1.24434400       0.03207600       4.40361200       0.64280824      -0.02016632       4.60057256
B        3.14587000       1.61638000       2.59818000      -3.96044800      -1.57388800      -2.24367700      -4.12654360      -1.55193763      -2.20196939
B        4.07212000       1.93087000       3.78701000       0.55534200       0.12762300      -3.25123200       0.41140733       0.04317056      -3.29211179
B        2.24412000       1.90783000       4.05913000      -1.80380000      -9.70850100      -5.48536600      -1.94719657      -9.96992521      -5.58680367
B        2.90130000       3.06657000       4.45062000       2.48509300       7.60479000      -1.50334300       2.79023806       7.26916381      -1.44211871
B        2.82587000       3.80138000       5.80651000       0.21675600       2.27927400       3.92227300       0.23231030       2.14207141       3.93889565
B        2.60929000       5.04297000       1.66311000       0.12617300      -0.77075900      -0.46531300      -0.00492742      -0.98525213      -0.49698632
B        2.47198000       4.95014000       4.32601000      -0.76752800      -1.31946700       0.35153300      -0.89509180      -1.20085406       0.42780913
B        2.73354000       7.81887000       7.66829000      -1.47869400      -0.15377200       0.00458000      -1.46235549      -0.14954826       0.09557074
B        5.68071000       2.28134000       7.79544000      -0.95924500       0.41857400       1.11780500      -1.04724973       0.38709983       1.11296269
B        7.77536000       3.70665000       3.76574000      -0.44877700      -1.48394500      -0.38974400      -0.48428043      -1.41668122      -0.18672962
Si       0.79518000       0.92195000       5.77957000      -1.66645900      -4.94136200      -1.10925300      -1.64334160      -5.00985378      -0.96794230
Si       0.88055000       4.20706000       6.73551000       1.15626000       3.58432200      -0.32349000       1.14853498       3.68832559      -0.31914418
Si       1.15025000       6.44729000       2.43826000      -7.77651300      -1.83655100      -1.54918700      -7.83862460      -1.73017871      -1.74650989
Si       2.82820000       3.29548000       0.50208000      -4.05499500       1.58525200       5.32597100      -4.12400854       1.42846815       5.29640932
Si       4.14031000       6.38272000       0.30005000      -2.16949800      -2.44928300       2.57761000      -2.32645114      -2.32825585       2.46018497
Si       3.68345000       6.43010000       5.01209000       3.98893100       0.98565200      -2.13453700       3.93975547       1.21868251      -2.08349209
Si       5.73751000       0.59059000       2.53265000       5.08228400      -4.90021500       2.23852200       5.16335960      -4.93752284       2.48904514
Si       4.51163000       2.47994000       5.36819000       2.60737700      -2.86786400       7.12589500       2.80579541      -2.59353032       7.29366511
Si       6.43436000       3.75222000       5.86206000       1.38008400       0.66155200      -3.64612400       1.51721567       0.66380380      -3.78485016
Si       8.06432000       7.52318000       8.55473000       2.36409700      -3.06603600      11.34847700       2.69227488      -2.75398077      11.30027109
18
Lattice="6.5 0.0 0.0 0.0 6.5 0.0 0.0 0.0 6.5" Properties=species:S:1:pos:R:3:REF_forces:R:3:MACE_forces:R:3 config_type=Fe12B3Si3 REF_energy=-113.87843945 MACE_energy=-112.20683237218313 pbc="T T T"
Fe       5.40234000       5.43492000       1.53729000      -1.39532100       2.04028400       0.71142300      -1.16801850       2.00968888       0.78390209
Fe       2.09750000       2.10361000       0.54730000       2.35673700      -0.33103000       1.27254800       2.61960723      -0.18597532       1.47975687
Fe       2.84360000       1.73250000       3.81271000       2.28004000      -1.18251600      -0.27344700       2.21120246      -1.00581103      -0.34133201
Fe       0.77541000       4.93717000       1.04317000       1.56096300      -3.83372900       1.76362000       1.45162812      -3.59781502       1.58130110
Fe       0.07665000       3.70431000       3.74351000      -0.75952900      -0.39175400      -2.23189700      -1.02928627      -0.50606354      -2.31029710
Fe       4.77171000       3.58949000       4.78220000      -1.99219600      -4.62409700       0.48420500      -1.74129582      -4.53198014       0.40036574
Fe       4.12430000       1.49867000       1.46476000       0.29771700      -2.38794700       0.28396300       0.30169587      -2.71097962       0.15338597
Fe       0.95387000       5.17746000       5.28728000      -0.57085000      -0.50160400      -1.80733600      -0.84895921      -0.68078198      -1.33114691
Fe       1.93602000       3.09888000       2.36598000      -0.08855100       0.43128300      -0.27209000      -0.23573433       0.50551504      -0.48133904
Fe       5.69037000       1.28357000       4.20026000      -0.40866000      -0.49067900       0.18976600      -0.78061031      -0.36728084       0.26069222
Fe       1.94321000       2.86141000       5.39871000      -0.55906500       0.73218900      -1.80086600      -0.55839026       0.86430517      -2.10689432
Fe       4.33122000       5.38124000       5.25469000      -0.73272900       4.56545400       1.52017900      -0.63410406       4.41269020       1.57241656
B        0.37598000       1.64060000       1.21420000      -3.21263000       2.85095800       0.76078000      -3.11489031       2.82820297       0.91718076
B        1.88110000       4.04794000       3.96741000       2.48956600       2.45119300      -0.32261600       2.59628665       2.39509309      -0.32883028
B        3.63878000       0.94242000       5.41981000      -0.01444500       0.67937600       0.95779200       0.08909518       0.78731794       1.07584282
Si       1.19380000       0.26963000       0.19686000       0.54051800       0.24528300      -1.93219100       0.64581637       0.03428135      -1.90126031
Si       4.57825000       3.47658000       1.16117000       0.15934200       1.26766700      -0.81102600       0.23655503       1.41711936      -0.76063764
Si       1.09558000       0.76720000       2.75124000       0.04909300      -1.52033200       1.50719200      -0.04059784      -1.66752651       1.33689350
54
Lattice="8.579999685 0.0 0.0 0.0 8.579999685 0.0 0.0 0.0 8.5799996" Properties=species:S:1:pos:R:3:REF_forces:R:3:MACE_forces:R:3 config_type=Fe34B10Si10 REF_energy=-356.0869274 MACE_energy=-356.8342321064113 pbc="T T T"
Fe       0.92877000       1.08311000       2.12831000      -0.53214900      -1.15432400       0.53007800      -0.66503412      -1.18913580       0.41863762
Fe       1.12794000       0.45096000       7.37327000      -2.86345100       2.18226700       1.45805300      -2.74204264       1.99462524       1.41233405
Fe       0.91289000       3.61082000       1.96264000      -1.66570100       0.50807500      -4.76654600      -1.61445350       0.24511380      -4.67617077
Fe       0.97242000       3.25012000       3.83975000      -0.85629000      -1.23507100      -0.91491200      -1.16766008      -1.09585461      -0.45045596
Fe       1.43574000       3.84332000       5.84621000      -1.94378300      -0.72872400       4.94145300      -2.05940680      -0.57527483       4.80737321
Fe       0.45897000       5.99881000       1.32384000       1.86679900       1.45939200      -0.33976700       1.69535641       1.47681368      -0.14313972
Fe       0.05714000       6.25044000       6.01250000       0.66851500      -0.88142700       1.67028200       0.60182211      -0.74792111       1.65641878
Fe       1.87526000       7.05991000       7.27744000      -5.90957000       6.81146600       5.95768600      -5.68719544       7.02824224       5.81235048
Fe       4.21220000       0.80536000       3.81626000       0.44958900      -1.97725700       0.54591300       0.54662437      -1.87726618       0.45570736
Fe       2.64196000       0.75311000       5.88605000       0.80305000      -0.92688600      -1.50973400       0.48614218      -1.07676100      -1.45768044
Fe       2.51735000       4.27963000       7.86001000      -0.17185400       2.88247300       0.00075600      -0.15897865       3.00139881       0.03716912
Fe       2.46175000       4.76211000       4.38544000       2.27245000       6.36429500      -0.60000700       2.32952149       6.37993594      -0.55706530
Fe       3.99132000       4.46692000       6.09268000      -0.21521200      -1.96607600      -0.25853400      -0.24794922      -2.20934367      -0.19246838
Fe       4.03283000       6.20484000       2.50717000       0.32509400      -1.83048700       1.07686200       0.44815769      -1.75518723       1.05729663
Fe       2.62183000       8.12097000       1.25125000      -5.45108600      -1.04608100      -0.88869000      -5.52349110      -1.11587748      -0.67367488
Fe       2.34208000       7.49949000       3.33705000      -1.45221900       0.10179900       1.96325000      -1.31017452       0.10787441       1.64287906
Fe       4.67554000       0.98699000       8.35162000       1.97529500       0.95938300       0.07305200       1.73649785       0.91655339       0.30921912
Fe       4.68615000       2.28426000       1.60336000       6.03713100       4.39249100       1.56082500       6.23330921       4.34192227       1.08563850
Fe       4.95897000       4.28949000       0.91503000       1.24258400       3.77490300      -1.07876200       0.81812409       3.60392160      -1.18059394
Fe       5.62605000       3.84953000       3.25301000      -4.56775200       3.43217100       2.09526400      -4.60201076       3.47176353       1.86077571
Fe       5.63153000       5.70233000       4.67966000       0.04558900       0.36352900      -0.74034800       0.11157471      -0.02868025      -0.58802452
Fe       5.00954000       6.14620000       6.89198000       4.51113600      -2.60361300       1.43664400       4.56493595      -2.46741213       1.33387445
Fe       5.34723000       7.32984000       0.56425000       3.41130600      -7.55812200      -7.44238600       3.32415353      -7.07681050      -7.09356042
Fe       4.57141000       8.20633000       1.67615000      -2.51651100       6.57056000       9.11650700      -2.50476864       6.05884021       8.79810228
Fe       5.67084000       7.83697000       6.02451000      -0.02983000       3.57151200       0.33120700      -0.06164811       3.65120261       0.41103747
Fe       7.65837000       1.05332000       0.64336000       1.95813700       2.93603900      -3.62028800       1.85326026       2.83512108      -3.45735192
Fe       7.23579000       1.49494000       3.62009000       0.88838800      -1.50203300       3.00240400       1.04314091      -1.44776188       2.98703461
Fe       6.96409000       1.59543000       6.70415000       0.40175100      -2.57633900      -0.54943900       0.46327916      -2.45607817      -0.52399166
Fe       6.97946000       3.05325000       2.27831000       3.01329100      -2.85779700      -7.80747400       2.59075903      -2.92054370      -7.34613314
Fe       7.05854000       3.62734000       7.13255000       0.94483300       2.42104600       2.56329500       1.01177148       2.36567097       2.39057143
Fe       7.47490000       4.49325000       0.92243000      -3.13561000       0.06366500       0.11142200      -2.83770284       0.40287429      -0.12648387
Fe       7.76499000       5.40883000       4.05655000       3.42051700      -2.49950500       1.10150300       3.52808161      -2.63370156       1.12726224
Fe       6.91686000       6.16423000       2.38917000      -4.34160700       0.52717700      -3.24358900      -4.32909282       0.79281288      -3.22829009
Fe       7.31773000       7.39473000       4.73130000      -1.41907300       3.06948200       1.38572900      -1.42294875       2.96058093       1.35124858
B        1.63947000       5.44017000       2.85377000      -1.37965300       1.67099600      -0.34434500      -1.48503980       1.72204984      -0.57812068
B        3.47444000       1.29905000       1.69513000      -6.04542900      -7.46227000      -1.52467000      -6.07852343      -6.96082772      -1.24854942
B        2.31673000       1.42955000       3.77944000      -1.85652800      -2.14982900       3.21956500      -1.78432278      -1.98484228       3.37824265
B        3.17088000       0.01260000       8.16689000      -2.14308300      -0.12737100      -3.63430700      -2.07912218       0.13147614      -3.52106609
B        2.48887000       2.23189000       2.44876000      -1.30373000       3.96631200      -0.94871100      -0.90924711       3.79287457      -1.25311413
B        3.55016000       3.21990000       0.17024000       2.13469500      -3.52588700       0.23974700       2.12409457      -3.55807431       0.38151177
B        3.12966000       3.07291000       4.24572000      -6.99085300       0.34377600      -0.16579100      -6.95764103       0.13474125      -0.18802782
B        2.38358000       5.95301000       6.34325000       2.25901800      -8.76611800      -6.31465800       2.11137379      -9.03898339      -6.40215827
B        4.46260000       2.62992000       4.23823000       7.08507900      -1.75449200       0.40993300       7.03467851      -1.85929093       0.39328121
B        7.51183000       3.59374000       3.85724000       1.49621300      -1.20378300       3.39561400       1.50956082      -1.04212117       3.22714355
Si       0.50050000       1.66927000       5.10425000      -1.02554400      -2.67263500       2.61432900      -0.78504598      -2.98355615       2.62045457
Si       0.41923000       4.50138000       8.15701000       0.82744200      -0.47721100      -2.57541600       1.07219864      -0.42077741      -2.77825104
Si       2.90131000       4.25049000       1.93860000       2.71957100       0.04497600      -0.88170100       2.74752009      -0.00835553      -1.05079207
Si       3.74353000       6.85388000       5.19884000      -1.20766000       1.80214700      -2.20114300      -1.08087913       1.93465661      -2.11163906
Si       3.54209000       6.47938000       8.21357000      -0.45014500      -1.75854100       4.24377300      -0.60747705      -2.05544739       4.40937167
Si       4.55252000       1.74669000       6.40118000       0.28733400       0.20348600      -1.69136000       0.25311194       0.19083538      -1.61245490
Si       5.87020000       3.30923000       5.41310000       1.93974000       0.55942400      -1.14043100       1.68138386       0.83493212      -1.15691607
Si       6.68392000       0.09389000       2.07850000      -2.78148600      -1.30329400       2.70552900      -2.56845304      -1.24424754       2.82886424
Si       7.30980000       7.36953000       0.08595000       4.18267400      -0.22507900      -1.67891000       4.33268628      -0.42632159      -1.74989915
Si       8.41387000       7.50606000       2.97540000       5.08859000       1.78741200      -0.88875800       5.01718899       1.87962167      -0.84772664
54
Lattice="8.579999685 0.0 0.0 0.0 8.579999685 0.0 0.0 0.0 8.5799996" Properties=species:S:1:pos:R:3:REF_forces:R:3:MACE_forces:R:3 config_type=Fe34B10Si10 REF_energy=-359.84864784 MACE_energy=-360.24602633106275 pbc="T T T"
Fe       0.39531000       2.37288000       0.87042000       3.27925500       2.43832800      -1.60261100       3.16707662       2.69448661      -1.75100314
Fe       0.75383000       1.65209000       3.11094000       1.30783500      -0.34615400      -0.09267000       1.31707739      -0.79702971       0.04923310
Fe       1.33201000       3.79282000       7.26231000      -2.40668100      -1.18131200       0.32245500      -2.48140426      -1.16178865       0.23755683
Fe       0.64436000       4.41396000       2.97573000       2.42004200      -2.26182600       0.38963900       2.47260731      -2.06454056       0.24002805
Fe       0.14751000       6.42079000       3.51005000      -3.07002100       1.32407200      -2.30638400      -3.13161487       1.32037084      -2.46117321