54
Lattice="8.579999685 0.0 0.0 0.0 8.579999685 0.0 0.0 0.0 8.5799996" Properties=species:S:1:pos:R:3:REF_forces:R:3:MACE_forces:R:3 config_type=Fe34B10Si10 REF_energy=-352.89092233 MACE_energy=-353.2032272044363 pbc="T T T"
Fe       1.46495000       0.71583000       1.12880000       3.73230100      -3.41607500      -3.76209700       3.68871801      -3.43491459      -3.54165645
Fe       0.56244000       2.07917000       1.96452000      -3.31290700       4.06628900       2.54508600      -3.26390539       3.93779649       2.28616243
Fe       0.86636000       2.12990000       5.00906000     -10.85567700      -2.87102900      12.20968700     -10.91205831      -2.95814944      12.22466601
Fe       0.24697000       2.61233000       7.83061000      -0.37811800      -2.03816900      -0.08744800      -0.41918438      -1.94777383       0.05684750
Fe       0.35437000       4.66395000       8.16447000      -1.30300600       1.62250000       0.84662400      -1.36728820       1.70211625       0.80483856
Fe       0.83543000       8.00840000       3.01492000       5.54921000      -2.55787300       0.52513800       5.70770028      -2.54815208       0.43022337
Fe       2.03952000       7.84431000       6.63062000      -4.28706100       1.82495200      -1.68802900      -4.11906844       1.99137358      -1.64211524
Fe       3.34318000       0.11090000       2.96052000      -0.46571400      -0.35056300       0.37864800      -0.50394754      -0.22209889       0.47893873
Fe       3.26317000       2.11539000       1.48699000      -3.47884800      -0.03222100       0.61542300      -3.37696727      -0.27022005       0.19553759
Fe       4.14313000       2.75755000       3.31065000      -0.71378000      -2.73118300       1.93004800      -0.63281759      -2.47699646       1.92843026
Fe       2.55051000       2.67374000       7.19710000      -2.55215900      -0.93589000       1.77261600      -2.30143111      -1.09542545       1.73744625
Fe       3.61327000       2.86500000       5.46497000       1.55763200       0.20514300      -0.56676300       1.50335847       0.27888587      -0.33607489
Fe       2.62400000       4.72550000       1.39174000      -1.08585200      -1.19598700       0.59645400      -1.38666635      -0.96364741       0.71100935
Fe       2.20317000       5.21693000       3.87451000      -3.92870900      -4.38103900      -4.92199500      -3.90006426      -4.34093790      -4.99569018
Fe       3.93082000       4.37819000       8.08226000       1.07616800       0.44807800      -0.99700400       0.99390176       0.27542931      -0.97785484
Fe       2.44961000       7.01753000       1.08943000       0.32119000      -1.55635000       3.27006500       0.41169990      -1.59199630       3.29688511
Fe       3.02500000       6.15780000       5.08193000      -1.08486800       1.64126100       3.95415400      -0.52264537       1.67207248       4.06814454
Fe       5.77712000       0.44616000       0.16142000      -2.43333700       0.07175000       4.13474700      -2.48458962       0.43078395       4.24466909
Fe       5.66964000       0.14892000       2.95259000      -3.67617900       1.90971100       0.12919700      -3.71754645       1.65858677       0.33603640
Fe       5.39484000       2.66317000       1.55162000       4.08183700      -3.39937100       3.88213200       4.06559765      -3.68656230       4.07752834
Fe       5.91309000       3.40423000       8.31953000       8.90196200       5.48305700      -2.72562400       8.68908513       5.40003566      -2.67412650
Fe       4.96126000       4.63305000       3.41410000      -3.60269200      -2.00302700       2.25051900      -3.74223601      -2.22145082       2.43770464
Fe       5.11347000       6.81217000       1.78872000      -0.87770500       0.06714300      -1.61156800      -0.73226035       0.05426761      -1.59149403
Fe       5.00950000       6.45991000       8.24507000      -2.30619500      -0.19808200      -1.52355700      -2.34598014       0.01815963      -1.76420503
Fe       4.64263000       7.71190000       5.75084000       2.50156800       4.23919200      -1.55456800       2.56359162       4.34857936      -1.63203499
Fe       7.32285000       0.33022000       5.03535000      -0.99210900      -0.59745100       4.73628300      -1.01487715      -0.35637415       4.79818450
Fe       6.75330000       1.32958000       7.05071000       0.53851300       2.01290400       0.36400700       0.53505196       1.86829231       0.34054339
Fe       6.82686000       2.53028000       3.66692000      -0.08907100      -0.12987400      -0.26318300      -0.03101346      -0.19586038      -0.22950419
Fe       6.83617000       5.56618000       0.59386000       1.74434500       1.47371700      -3.32847200       1.85668544       1.65669447      -3.51983002
Fe       8.27091000       4.29855000       2.87718000       3.23308900       0.33980500       1.37352500       3.20263555       0.19713262       1.30996513
Fe       6.58774000       4.90718000       4.97515000      -1.87594500       0.58060600      -0.05143700      -2.12934505       0.65353342      -0.35724965
Fe       6.86773000       6.79187000       3.27473000       1.52763600      -2.76254700       0.67579100       1.40972145      -2.47386911       0.36016904
Fe       8.09083000       8.29691000       0.84396000      -4.18921500      -1.95965200       9.56442300      -4.12584381      -2.31293235       9.66256199
Fe       6.62133000       7.67903000       7.47205000      -3.65417600       1.51975600      -3.32990400      -3.91720004       1.20083276      -3.50688230
B        3.45077000       6.81738000       6.75435000       2.04131500      -2.79808300       3.80923700       1.94171536      -2.79579632       4.01383406
B        4.67436000       1.10514000       4.73414000       0.75036200       0.95391600      -0.52852700       0.83462053       0.93225956      -0.47167706
B        6.18153000       2.20088000       5.47737000      -4.49435700      -3.20609500      -2.27763700      -4.72965666      -3.16467691      -2.52525795
B        5.08133000       4.10197000       6.35983000       0.35152900       0.25548900      -0.65354500       0.55246540       0.31543494      -0.57240964
B        4.48663000       4.29393000       1.40792000      -0.27448100       1.04603100       0.21283300      -0.25880897       1.22275494       0.14615204
B        4.96286000       5.88068000       6.14703000       0.60492000      -1.85032800       0.29314600       0.56671360      -1.95155640       0.14698465
B        8.17242000       5.65216000       5.55863000       1.00443800       0.65677900      -0.69824300       1.04229485       0.67982742      -0.29596393
B        7.98743000       6.92663000       6.60530000       5.86774900       2.58695800      -4.05103700       5.82835698       2.37245390      -3.63464146
B        7.10769000       5.72812000       6.91109000      -2.33709700      -3.34606800       1.34633400      -2.22745393      -3.41333519       1.36982717
B        7.81665000       6.81498000       8.33858000       5.04350100      -2.41043400       0.97359300       5.15239790      -2.44483094       0.64781566
Si       0.06983000       0.14925000       7.74742000       4.12649000       2.60901100      -8.87608100       3.98295992       2.63237959      -8.86878821
Si       1.93337000       2.41223000       3.74634000      10.14534600       2.98113100     -12.18526000      10.25169497       3.07826677     -12.03499533
Si       0.75978000       6.02813000       1.69309000      -4.13401100      -0.74920300       1.02787300      -4.11139196      -0.88871538       0.98307973
Si       2.22023000       5.10313000       7.16329000      -1.58663400       1.19675500      -1.89967800      -1.76421864       1.14522555      -1.94112277
Si       3.27754000       8.17117000       8.35443000       4.04667900       4.58101600      -2.24829100       3.90487264       4.54199934      -2.43764342
Si       4.48145000       2.18337000       8.34202000      -5.72220500      -5.96162700      -4.99603400      -5.51310810      -5.82723569      -5.19587706
Si       6.36439000       4.54151000       2.12641000       2.28764700      -2.33178900       1.39384200       2.58009054      -2.23038686       1.29874887
Si       4.52267000       6.51460000       3.75633000       0.42177200       5.22743800       1.25328700       0.13525142       5.34765294       1.35041270
Si       7.68278000       0.22257000       3.11016000      -0.17295300       4.89916800      -3.86478000      -0.25688140       4.82760637      -3.97601385
Si       7.35363000       3.38410000       6.13231000       4.40786200       1.27045000       2.62604800       4.40727460       1.37346135       2.97976189
54
Lattice="8.579999685 0.0 0.0 0.0 8.579999685 0.0 0.0 0.0 8.5799996" Properties=species:S:1:pos:R:3:REF_forces:R:3:MACE_forces:R:3 config_type=Fe34B10Si10 REF_energy=-354.71875992 MACE_energy=-355.3430816568664 pbc="T T T"
Fe       0.43313000       1.19321000       2.96848000       1.47291300       2.99028000       0.61180900       1.64479289       2.99540286       0.38050107
Fe       0.91365000       1.12516000       8.09995000       2.76260400      -2.00335600       1.20968300       2.46985096      -2.01207791       1.07297007
Fe       1.17142000       2.67870000       5.23446000      -1.90323000       6.04651700       0.58026800      -1.69551435       6.27722631       0.60642130
Fe       0.60772000       3.85484000       0.87278000       2.66909500       4.89444800       4.53699300       2.66373506       5.14155144       4.17537811
Fe       1.41565000       3.44858000       3.01161000      -0.29549500       2.03729500      -0.74017400      -0.18262446       1.90241777      -0.68238667
Fe       0.04226000       2.91249000       8.09734000      -3.39897200      -2.84207300      -2.69442200      -2.92158261      -2.82757877      -2.37327695
Fe       1.33282000       7.09057000       5.22634000      -0.45239700      -1.35392500       0.92503500      -0.28600211      -1.49545482       0.86275131
Fe       2.06045000       7.92051000       0.98063000      -3.11321000      -0.30108300      -2.49280600      -3.25910107      -0.49121050      -2.35458609
Fe       2.03627000       8.24295000       3.50701000      -1.42216600       4.38122900       0.88517600      -1.59409783       4.21962731       0.57290303
Fe       0.01253000       8.02686000       7.00667000       2.58679700       0.98610200     -11.80201700       2.52032924       0.83704027     -11.94108287
Fe       3.00353000       0.57289000       6.13981000      -1.03922300       0.18357300       0.93137300      -0.74870917       0.02903896       1.09304021
Fe       3.69949000       2.65196000       7.51811000       2.76433000      -4.34399200      -3.80269000       2.59940153      -4.19023571      -3.66562664
Fe       2.94478000       6.44154000       3.03987000       7.21319500      -3.66655800      -1.17614100       7.14427724      -3.49159871      -1.01123994
Fe       2.94309000       5.75189000       6.64956000      -6.24071800      -0.74678300       3.86021800      -6.51370714      -0.71197759       3.94917803
Fe       3.71160000       8.39321000       1.86324000       2.24845700      -0.43546600       0.28887200       2.40417999      -0.23431185       0.53811116
Fe       4.07810000       8.43915000       4.32840000       2.88035800       1.28304800      -0.49181300       2.94541776       1.41894278      -0.80534419
Fe       5.57499000       0.73262000       6.31633000      -3.12774100      -1.68249800      -0.98058200      -2.84911069      -1.69102449      -1.00078880
Fe       4.70712000       1.94493000       1.65492000      -2.04675700       4.97917500      -3.67899600      -2.08904175       4.87157706      -3.47909121
Fe       4.73401000       4.18392000       1.24748000       0.71501700       1.80608500      -0.06999200       0.67891872       1.96956387      -0.13141189
Fe       4.56687000       4.22266000       4.39618000       0.73801700       3.32591500      -2.10569900       0.55485388       3.41991141      -2.26355549
Fe       4.51224000       4.61167000       7.05684000       2.53211900      -0.41024200       0.53825400       2.96872187      -0.69223337       0.59101940
Fe       6.32808000       6.81945000       4.24288000      -3.20445400      -0.33519400      -1.28892300      -2.82975071      -0.23524499      -1.06817060
Fe       6.22240000       7.17309000       0.16230000      -3.30904600      -2.75215800       1.90373500      -3.47737350      -3.00206854       2.00934344
Fe       4.54224000       7.44382000       7.03838000       0.17895600      -5.02037800      -8.74618400       0.18151138      -5.26500554      -8.74420612
Fe       4.73272000       8.55832000       8.35561000      -0.10588400       8.96287400       6.54083400      -0.28850540       9.29878642       6.18009210
Fe       7.67285000       2.82429000       2.17742000      -2.12886900      -0.76272600      -2.06587500      -2.15936037      -0.75210287      -1.90074303
Fe       6.74071000       1.77406000       4.33655000       0.47479500       0.50025500      -0.42349800       0.10472806       0.48138242      -0.50200600
Fe       7.16362000       1.61896000       6.68131000       5.11373900       1.83737400       0.70818800       4.80575666       1.63290128       0.63424563
Fe       6.73653000       4.13840000       7.84564000       0.19062300       0.32905600       3.59274800       0.31483461       0.44309671       3.64699838
Fe       6.61248000       5.35948000       2.44590000       0.96755600      -0.77403900      -0.47053600       0.87874629      -0.76149676      -0.43734149
Fe       8.39074000       4.95678000       4.82580000       0.50677700       3.21370700       1.22596300       0.57324571       3.17070697       1.08132013
Fe       6.62275000       6.29700000       6.29237000       0.91106900      -0.58785400       1.74696000       0.84900154      -0.48105514       1.55537212
Fe       8.00875000       8.14674000       2.12563000      -1.25903800      -1.94608200      -3.37077000      -0.88367636      -1.96486546      -3.54519114
Fe       7.96861000       8.10559000       4.08816000       1.24434400       0.03207600       4.40361200       0.64875556      -0.01391371       4.62929191
B        3.14587000       1.61638000       2.59818000      -3.96044800      -1.57388800      -2.24367700      -4.10985551      -1.55456105      -2.16400879
B        4.07212000       1.93087000       3.78701000       0.55534200       0.12762300      -3.25123200       0.38394719       0.03575867      -3.28592515
B        2.24412000       1.90783000       4.05913000      -1.80380000      -9.70850100      -5.48536600      -1.92705360      -9.95940159      -5.59719683
B        2.90130000       3.06657000       4.45062000       2.48509300       7.60479000      -1.50334300       2.80901789       7.26668374      -1.43724647
B        2.82587000       3.80138000       5.80651000       0.21675600       2.27927400       3.92227300       0.23070216       2.13494027       3.91356347
B        2.60929000       5.04297000       1.66311000       0.12617300      -0.77075900      -0.46531300      -0.01251513      -0.99058903      -0.48746063
B        2.47198000       4.95014000       4.32601000      -0.76752800      -1.31946700       0.35153300      -0.87841852      -1.19043896       0.42787786
B        2.73354000       7.81887000       7.66829000      -1.47869400      -0.15377200       0.00458000      -1.45453038      -0.15700333       0.09887464
B        5.68071000       2.28134000       7.79544000      -0.95924500       0.41857400       1.11780500      -1.04821165       0.38563994       1.10244485
B        7.77536000       3.70665000       3.76574000      -0.44877700      -1.48394500      -0.38974400      -0.48068070      -1.42017656      -0.20019751
Si       0.79518000       0.92195000       5.77957000      -1.66645900      -4.94136200      -1.10925300      -1.64483626      -5.01711622      -0.95854519
Si       0.88055000       4.20706000       6.73551000       1.15626000       3.58432200      -0.32349000       1.14742089       3.68040764      -0.31237442
Si       1.15025000       6.44729000       2.43826000      -7.77651300      -1.83655100      -1.54918700      -7.81994196      -1.72134918      -1.75304750
Si       2.82820000       3.29548000       0.50208000      -4.05499500       1.58525200       5.32597100      -4.12744814       1.44377026       5.30898736
Si       4.14031000       6.38272000       0.30005000      -2.16949800      -2.44928300       2.57761000      -2.33053326      -2.32752549       2.45315531
Si       3.68345000       6.43010000       5.01209000       3.98893100       0.98565200      -2.13453700       3.92360071       1.21536647      -2.08740243
Si       5.73751000       0.59059000       2.53265000       5.08228400      -4.90021500       2.23852200       5.16664320      -4.93702955       2.49858822
Si       4.51163000       2.47994000       5.36819000       2.60737700      -2.86786400       7.12589500       2.79744053      -2.59150910       7.27013580
Si       6.43436000       3.75222000       5.86206000       1.38008400       0.66155200      -3.64612400       1.50835809       0.65909990      -3.77650840
Si       8.06432000       7.52318000       8.55473000       2.36409700      -3.06603600      11.34847700       2.69399304      -2.75068395      11.31339751
18
Lattice="6.5 0.0 0.0 0.0 6.5 0.0 0.0 0.0 6.5" Properties=species:S:1:pos:R:3:REF_forces:R:3:MACE_forces:R:3 config_type=Fe12B3Si3 REF_energy=-113.87843945 MACE_energy=-112.29035247054054 pbc="T T T"
Fe       5.40234000       5.43492000       1.53729000      -1.39532100       2.04028400       0.71142300      -1.18787595       2.01255380       0.78355420
Fe       2.09750000       2.10361000       0.54730000       2.35673700      -0.33103000       1.27254800       2.59588732      -0.20436145       1.47584332
Fe       2.84360000       1.73250000       3.81271000       2.28004000      -1.18251600      -0.27344700       2.22005655      -1.01753457      -0.32812501
Fe       0.77541000       4.93717000       1.04317000       1.56096300      -3.83372900       1.76362000       1.46248418      -3.59132642       1.57628921
Fe       0.07665000       3.70431000       3.74351000      -0.75952900      -0.39175400      -2.23189700      -1.01168310      -0.50794306      -2.31886533
Fe       4.77171000       3.58949000       4.78220000      -1.99219600      -4.62409700       0.48420500      -1.74800277      -4.54243304       0.40792661
Fe       4.12430000       1.49867000       1.46476000       0.29771700      -2.38794700       0.28396300       0.30563688      -2.71084938       0.15197453
Fe       0.95387000       5.17746000       5.28728000      -0.57085000      -0.50160400      -1.80733600      -0.84682049      -0.67779710      -1.33350214
Fe       1.93602000       3.09888000       2.36598000      -0.08855100       0.43128300      -0.27209000      -0.24843843       0.50957602      -0.48457066
Fe       5.69037000       1.28357000       4.20026000      -0.40866000      -0.49067900       0.18976600      -0.79194763      -0.36924439       0.25802609
Fe       1.94321000       2.86141000       5.39871000      -0.55906500       0.73218900      -1.80086600      -0.56188053       0.86739417      -2.10028943
Fe       4.33122000       5.38124000       5.25469000      -0.73272900       4.56545400       1.52017900      -0.63462859       4.43194630       1.57385160
B        0.37598000       1.64060000       1.21420000      -3.21263000       2.85095800       0.76078000      -3.06157438       2.80506708       0.91258275
B        1.88110000       4.04794000       3.96741000       2.48956600       2.45119300      -0.32261600       2.59242385       2.38702854      -0.32091483
B        3.63878000       0.94242000       5.41981000      -0.01444500       0.67937600       0.95779200       0.09203558       0.78987835       1.06392967
Si       1.19380000       0.26963000       0.19686000       0.54051800       0.24528300      -1.93219100       0.63505738       0.04727184      -1.88080843
Si       4.57825000       3.47658000       1.16117000       0.15934200       1.26766700      -0.81102600       0.23455432       1.41951847      -0.75986961
Si       1.09558000       0.76720000       2.75124000       0.04909300      -1.52033200       1.50719200      -0.04528420      -1.64874516       1.32296746
54
Lattice="8.579999685 0.0 0.0 0.0 8.579999685 0.0 0.0 0.0 8.5799996" Properties=species:S:1:pos:R:3:REF_forces:R:3:MACE_forces:R:3 config_type=Fe34B10Si10 REF_energy=-356.0869274 MACE_energy=-357.0623205259454 pbc="T T T"
Fe       0.92877000       1.08311000       2.12831000      -0.53214900      -1.15432400       0.53007800      -0.65782899      -1.17875291       0.43324202
Fe       1.12794000       0.45096000       7.37327000      -2.86345100       2.18226700       1.45805300      -2.75613677       1.99940379       1.42631070
Fe       0.91289000       3.61082000       1.96264000      -1.66570100       0.50807500      -4.76654600      -1.59107032       0.25467402      -4.68845548
Fe       0.97242000       3.25012000       3.83975000      -0.85629000      -1.23507100      -0.91491200      -1.18053645      -1.11354995      -0.45069111
Fe       1.43574000       3.84332000       5.84621000      -1.94378300      -0.72872400       4.94145300      -2.07368572      -0.57978294       4.83977506
Fe       0.45897000       5.99881000       1.32384000       1.86679900       1.45939200      -0.33976700       1.71693227       1.48229232      -0.13167168
Fe       0.05714000       6.25044000       6.01250000       0.66851500      -0.88142700       1.67028200       0.61109216      -0.76144383       1.66818523
Fe       1.87526000       7.05991000       7.27744000      -5.90957000       6.81146600       5.95768600      -5.66444626       7.02732756       5.83725943
Fe       4.21220000       0.80536000       3.81626000       0.44958900      -1.97725700       0.54591300       0.53747907      -1.85972971       0.45486015
Fe       2.64196000       0.75311000       5.88605000       0.80305000      -0.92688600      -1.50973400       0.50214859      -1.07320404      -1.47520196
Fe       2.51735000       4.27963000       7.86001000      -0.17185400       2.88247300       0.00075600      -0.15453465       3.01496432       0.04603631
Fe       2.46175000       4.76211000       4.38544000       2.27245000       6.36429500      -0.60000700       2.34889300       6.40554463      -0.58667106
Fe       3.99132000       4.46692000       6.09268000      -0.21521200      -1.96607600      -0.25853400      -0.25758491      -2.20584601      -0.19605351
Fe       4.03283000       6.20484000       2.50717000       0.32509400      -1.83048700       1.07686200       0.44500513      -1.77944794       1.06429123
Fe       2.62183000       8.12097000       1.25125000      -5.45108600      -1.04608100      -0.88869000      -5.54200765      -1.10778117      -0.70794643
Fe       2.34208000       7.49949000       3.33705000      -1.45221900       0.10179900       1.96325000      -1.31551713       0.10275082       1.66093033
Fe       4.67554000       0.98699000       8.35162000       1.97529500       0.95938300       0.07305200       1.72822688       0.91119882       0.28862778
Fe       4.68615000       2.28426000       1.60336000       6.03713100       4.39249100       1.56082500       6.22174655       4.34009801       1.09225961
Fe       4.95897000       4.28949000       0.91503000       1.24258400       3.77490300      -1.07876200       0.80315600       3.62319939      -1.19993409
Fe       5.62605000       3.84953000       3.25301000      -4.56775200       3.43217100       2.09526400      -4.62656044       3.47246442       1.88845663
Fe       5.63153000       5.70233000       4.67966000       0.04558900       0.36352900      -0.74034800       0.09416934      -0.03445333      -0.58289455
Fe       5.00954000       6.14620000       6.89198000       4.51113600      -2.60361300       1.43664400       4.54824668      -2.47684704       1.35335140
Fe       5.34723000       7.32984000       0.56425000       3.41130600      -7.55812200      -7.44238600       3.33039289      -7.09063175      -7.10732808
Fe       4.57141000       8.20633000       1.67615000      -2.51651100       6.57056000       9.11650700      -2.49390208       6.07458312       8.80721305
Fe       5.67084000       7.83697000       6.02451000      -0.02983000       3.57151200       0.33120700      -0.07380900       3.68017972       0.41232996
Fe       7.65837000       1.05332000       0.64336000       1.95813700       2.93603900      -3.62028800       1.83889362       2.82981385      -3.45449597
Fe       7.23579000       1.49494000       3.62009000       0.88838800      -1.50203300       3.00240400       1.05669803      -1.46527775       2.99473289
Fe       6.96409000       1.59543000       6.70415000       0.40175100      -2.57633900      -0.54943900       0.45381935      -2.47747932      -0.54043002
Fe       6.97946000       3.05325000       2.27831000       3.01329100      -2.85779700      -7.80747400       2.59830029      -2.93169881      -7.34904634
Fe       7.05854000       3.62734000       7.13255000       0.94483300       2.42104600       2.56329500       1.01065724       2.39525217       2.39460197
Fe       7.47490000       4.49325000       0.92243000      -3.13561000       0.06366500       0.11142200      -2.82514285       0.40061093      -0.13935251
Fe       7.76499000       5.40883000       4.05655000       3.42051700      -2.49950500       1.10150300       3.55465916      -2.67298588       1.13406866
Fe       6.91686000       6.16423000       2.38917000      -4.34160700       0.52717700      -3.24358900      -4.34103463       0.81400886      -3.25012772
Fe       7.31773000       7.39473000       4.73130000      -1.41907300       3.06948200       1.38572900      -1.41700694       2.98950417       1.33221567
B        1.63947000       5.44017000       2.85377000      -1.37965300       1.67099600      -0.34434500      -1.47391514       1.70374385      -0.59000681
B        3.47444000       1.29905000       1.69513000      -6.04542900      -7.46227000      -1.52467000      -6.10676392      -6.96601443      -1.23465043
B        2.31673000       1.42955000       3.77944000      -1.85652800      -2.14982900       3.21956500      -1.76819647      -1.95193339       3.34575112
B        3.17088000       0.01260000       8.16689000      -2.14308300      -0.12737100      -3.63430700      -2.07531541       0.12074871      -3.51500794
B        2.48887000       2.23189000       2.44876000      -1.30373000       3.96631200      -0.94871100      -0.89735663       3.76442656      -1.23334048
B        3.55016000       3.21990000       0.17024000       2.13469500      -3.52588700       0.23974700       2.12800711      -3.55680180       0.40077467
B        3.12966000       3.07291000       4.24572000      -6.99085300       0.34377600      -0.16579100      -6.93368319       0.12429965      -0.18483282
B        2.38358000       5.95301000       6.34325000       2.25901800      -8.76611800      -6.31465800       2.13383166      -9.06040948      -6.41916302
B        4.46260000       2.62992000       4.23823000       7.08507900      -1.75449200       0.40993300       7.01416381      -1.85027152       0.38648588
B        7.51183000       3.59374000       3.85724000       1.49621300      -1.20378300       3.39561400       1.50962141      -1.03915552       3.22795997
Si       0.50050000       1.66927000       5.10425000      -1.02554400      -2.67263500       2.61432900      -0.77989909      -2.97855417       2.62163118
Si       0.41923000       4.50138000       8.15701000       0.82744200      -0.47721100      -2.57541600       1.07020158      -0.41894134      -2.77244353
Si       2.90131000       4.25049000       1.93860000       2.71957100       0.04497600      -0.88170100       2.73154781      -0.01351288      -1.04681337
Si       3.74353000       6.85388000       5.19884000      -1.20766000       1.80214700      -2.20114300      -1.08167378       1.92272043      -2.10067124
Si       3.54209000       6.47938000       8.21357000      -0.45014500      -1.75854100       4.24377300      -0.60682439      -2.03337314       4.39533306
Si       4.55252000       1.74669000       6.40118000       0.28733400       0.20348600      -1.69136000       0.26282545       0.19285126      -1.62410400
Si       5.87020000       3.30923000       5.41310000       1.93974000       0.55942400      -1.14043100       1.65823247       0.82324725      -1.17341406
Si       6.68392000       0.09389000       2.07850000      -2.78148600      -1.30329400       2.70552900      -2.54669659      -1.25480024       2.82835446
Si       7.30980000       7.36953000       0.08595000       4.18267400      -0.22507900      -1.67891000       4.32554805      -0.41877584      -1.72886974
Si       8.41387000       7.50606000       2.97540000       5.08859000       1.78741200      -0.88875800       5.00663380       1.88154750      -0.85142048
54
Lattice="8.579999685 0.0 0.0 0.0 8.579999685 0.0 0.0 0.0 8.5799996" Properties=species:S:1:pos:R:3:REF_forces:R:3:MACE_forces:R:3 config_type=Fe34B10Si10 REF_energy=-359.84864784 MACE_energy=-360.4228871497789 pbc="T T T"
Fe       0.39531000       2.37288000       0.87042000       3.27925500       2.43832800      -1.60261100       3.17938306       2.68968395      -1.75437612
Fe       0.75383000       1.65209000       3.11094000       1.30783500      -0.34615400      -0.09267000       1.29583890      -0.77620288       0.06643204
Fe       1.33201000       3.79282000       7.26231000      -2.40668100      -1.18131200       0.32245500      -2.49710044      -1.19163190       0.22152226
Fe       0.64436000       4.41396000       2.97573000       2.42004200      -2.26182600       0.38963900       2.47464821      -2.07591235       0.23311766
Fe       0.14751000       6.42079000       3.51005000      -3.07002100       1.32407200      -2.30638400      -3.15476440       1.32705299      -2.46665802