54
Lattice="8.579999685 0.0 0.0 0.0 8.579999685 0.0 0.0 0.0 8.5799996" Properties=species:S:1:pos:R:3:REF_forces:R:3:MACE_forces:R:3 config_type=Fe34B10Si10 REF_energy=-352.89092233 MACE_energy=-353.3311663551195 pbc="T T T"
Fe       1.46495000       0.71583000       1.12880000       3.73230100      -3.41607500      -3.76209700       3.67823995      -3.50043031      -3.54341535
Fe       0.56244000       2.07917000       1.96452000      -3.31290700       4.06628900       2.54508600      -3.22650869       3.96335150       2.34392945
Fe       0.86636000       2.12990000       5.00906000     -10.85567700      -2.87102900      12.20968700     -10.93391669      -2.95415656      12.21717417
Fe       0.24697000       2.61233000       7.83061000      -0.37811800      -2.03816900      -0.08744800      -0.40732685      -1.89227903       0.07906832
Fe       0.35437000       4.66395000       8.16447000      -1.30300600       1.62250000       0.84662400      -1.33806538       1.60837974       0.77751489
Fe       0.83543000       8.00840000       3.01492000       5.54921000      -2.55787300       0.52513800       5.70474204      -2.53629871       0.39154508
Fe       2.03952000       7.84431000       6.63062000      -4.28706100       1.82495200      -1.68802900      -4.07394669       1.96330621      -1.63422141
Fe       3.34318000       0.11090000       2.96052000      -0.46571400      -0.35056300       0.37864800      -0.51583318      -0.23041441       0.46780560
Fe       3.26317000       2.11539000       1.48699000      -3.47884800      -0.03222100       0.61542300      -3.40286838      -0.29512940       0.17604902
Fe       4.14313000       2.75755000       3.31065000      -0.71378000      -2.73118300       1.93004800      -0.61757538      -2.40535624       1.86574900
Fe       2.55051000       2.67374000       7.19710000      -2.55215900      -0.93589000       1.77261600      -2.31100715      -1.13725831       1.71339935
Fe       3.61327000       2.86500000       5.46497000       1.55763200       0.20514300      -0.56676300       1.46542988       0.27948885      -0.28298964
Fe       2.62400000       4.72550000       1.39174000      -1.08585200      -1.19598700       0.59645400      -1.35265454      -1.00827147       0.69359950
Fe       2.20317000       5.21693000       3.87451000      -3.92870900      -4.38103900      -4.92199500      -3.85689339      -4.37967129      -4.97287113
Fe       3.93082000       4.37819000       8.08226000       1.07616800       0.44807800      -0.99700400       1.01914608       0.29914387      -0.93461906
Fe       2.44961000       7.01753000       1.08943000       0.32119000      -1.55635000       3.27006500       0.44195481      -1.62131287       3.26597921
Fe       3.02500000       6.15780000       5.08193000      -1.08486800       1.64126100       3.95415400      -0.63247003       1.64394588       4.04844474
Fe       5.77712000       0.44616000       0.16142000      -2.43333700       0.07175000       4.13474700      -2.47873779       0.41185139       4.21573464
Fe       5.66964000       0.14892000       2.95259000      -3.67617900       1.90971100       0.12919700      -3.65234932       1.64136983       0.32333497
Fe       5.39484000       2.66317000       1.55162000       4.08183700      -3.39937100       3.88213200       4.03337286      -3.65190869       4.04237383
Fe       5.91309000       3.40423000       8.31953000       8.90196200       5.48305700      -2.72562400       8.70645989       5.45019249      -2.70298164
Fe       4.96126000       4.63305000       3.41410000      -3.60269200      -2.00302700       2.25051900      -3.73798644      -2.21255015       2.37458216
Fe       5.11347000       6.81217000       1.78872000      -0.87770500       0.06714300      -1.61156800      -0.70483810       0.07905247      -1.56702234
Fe       5.00950000       6.45991000       8.24507000      -2.30619500      -0.19808200      -1.52355700      -2.28073966       0.01620147      -1.67838261
Fe       4.64263000       7.71190000       5.75084000       2.50156800       4.23919200      -1.55456800       2.60812571       4.27625280      -1.58839435
Fe       7.32285000       0.33022000       5.03535000      -0.99210900      -0.59745100       4.73628300      -1.02659238      -0.38184250       4.80020589
Fe       6.75330000       1.32958000       7.05071000       0.53851300       2.01290400       0.36400700       0.56127980       1.82622798       0.28861379
Fe       6.82686000       2.53028000       3.66692000      -0.08907100      -0.12987400      -0.26318300      -0.05652162      -0.20931767      -0.24114546
Fe       6.83617000       5.56618000       0.59386000       1.74434500       1.47371700      -3.32847200       1.81575111       1.63105789      -3.42519661
Fe       8.27091000       4.29855000       2.87718000       3.23308900       0.33980500       1.37352500       3.20444177       0.22660035       1.32146174
Fe       6.58774000       4.90718000       4.97515000      -1.87594500       0.58060600      -0.05143700      -2.10990996       0.61930280      -0.30217334
Fe       6.86773000       6.79187000       3.27473000       1.52763600      -2.76254700       0.67579100       1.38933188      -2.41949613       0.38607417
Fe       8.09083000       8.29691000       0.84396000      -4.18921500      -1.95965200       9.56442300      -4.18010655      -2.32337577       9.67525959
Fe       6.62133000       7.67903000       7.47205000      -3.65417600       1.51975600      -3.32990400      -3.90037751       1.24511605      -3.51509218
B        3.45077000       6.81738000       6.75435000       2.04131500      -2.79808300       3.80923700       1.92191649      -2.71031989       3.93789936
B        4.67436000       1.10514000       4.73414000       0.75036200       0.95391600      -0.52852700       0.82428027       0.87513454      -0.46408425
B        6.18153000       2.20088000       5.47737000      -4.49435700      -3.20609500      -2.27763700      -4.70440327      -3.14555593      -2.47204121
B        5.08133000       4.10197000       6.35983000       0.35152900       0.25548900      -0.65354500       0.57307370       0.33572458      -0.62951499
B        4.48663000       4.29393000       1.40792000      -0.27448100       1.04603100       0.21283300      -0.26051163       1.21896552       0.16517756
B        4.96286000       5.88068000       6.14703000       0.60492000      -1.85032800       0.29314600       0.62471717      -1.93004002       0.13022183
B        8.17242000       5.65216000       5.55863000       1.00443800       0.65677900      -0.69824300       1.01231153       0.72682213      -0.31857969
B        7.98743000       6.92663000       6.60530000       5.86774900       2.58695800      -4.05103700       5.84336892       2.48746140      -3.74352727
B        7.10769000       5.72812000       6.91109000      -2.33709700      -3.34606800       1.34633400      -2.31343017      -3.52347551       1.29820551
B        7.81665000       6.81498000       8.33858000       5.04350100      -2.41043400       0.97359300       5.16154812      -2.42401009       0.74834080
Si       0.06983000       0.14925000       7.74742000       4.12649000       2.60901100      -8.87608100       3.95329978       2.64121581      -8.85739958
Si       1.93337000       2.41223000       3.74634000      10.14534600       2.98113100     -12.18526000      10.23175181       3.10715183     -12.02044014
Si       0.75978000       6.02813000       1.69309000      -4.13401100      -0.74920300       1.02787300      -4.13362388      -0.87049288       1.02827362
Si       2.22023000       5.10313000       7.16329000      -1.58663400       1.19675500      -1.89967800      -1.78037715       1.16229954      -1.93279732
Si       3.27754000       8.17117000       8.35443000       4.04667900       4.58101600      -2.24829100       3.90111309       4.54227717      -2.46191904
Si       4.48145000       2.18337000       8.34202000      -5.72220500      -5.96162700      -4.99603400      -5.48421660      -5.82027187      -5.15664563
Si       6.36439000       4.54151000       2.12641000       2.28764700      -2.33178900       1.39384200       2.58568211      -2.23537566       1.26807716
Si       4.52267000       6.51460000       3.75633000       0.42177200       5.22743800       1.25328700       0.15982417       5.37195500       1.39403533
Si       7.68278000       0.22257000       3.11016000      -0.17295300       4.89916800      -3.86478000      -0.30587975       4.77212814      -3.97776161
Si       7.35363000       3.38410000       6.13231000       4.40786200       1.27045000       2.62604800       4.35850519       1.39663414       2.98508557
54
Lattice="8.579999685 0.0 0.0 0.0 8.579999685 0.0 0.0 0.0 8.5799996" Properties=species:S:1:pos:R:3:REF_forces:R:3:MACE_forces:R:3 config_type=Fe34B10Si10 REF_energy=-354.71875992 MACE_energy=-355.39317140333765 pbc="T T T"
Fe       0.43313000       1.19321000       2.96848000       1.47291300       2.99028000       0.61180900       1.61944097       2.97991432       0.32124251
Fe       0.91365000       1.12516000       8.09995000       2.76260400      -2.00335600       1.20968300       2.56806832      -2.12943296       1.11535895
Fe       1.17142000       2.67870000       5.23446000      -1.90323000       6.04651700       0.58026800      -1.68939507       6.28577418       0.61676344
Fe       0.60772000       3.85484000       0.87278000       2.66909500       4.89444800       4.53699300       2.66289396       5.10507502       4.23545017
Fe       1.41565000       3.44858000       3.01161000      -0.29549500       2.03729500      -0.74017400      -0.27893278       1.93128421      -0.67710071
Fe       0.04226000       2.91249000       8.09734000      -3.39897200      -2.84207300      -2.69442200      -3.08835225      -2.75490378      -2.48189548
Fe       1.33282000       7.09057000       5.22634000      -0.45239700      -1.35392500       0.92503500      -0.21859133      -1.50620530       0.82237720
Fe       2.06045000       7.92051000       0.98063000      -3.11321000      -0.30108300      -2.49280600      -3.24214568      -0.53211329      -2.32778207
Fe       2.03627000       8.24295000       3.50701000      -1.42216600       4.38122900       0.88517600      -1.53028585       4.19591493       0.55629883
Fe       0.01253000       8.02686000       7.00667000       2.58679700       0.98610200     -11.80201700       2.50691611       0.83062657     -11.93778582
Fe       3.00353000       0.57289000       6.13981000      -1.03922300       0.18357300       0.93137300      -0.71240260      -0.02109001       1.08467133
Fe       3.69949000       2.65196000       7.51811000       2.76433000      -4.34399200      -3.80269000       2.57571046      -4.15550558      -3.65980483
Fe       2.94478000       6.44154000       3.03987000       7.21319500      -3.66655800      -1.17614100       7.12263702      -3.37490592      -0.93173351
Fe       2.94309000       5.75189000       6.64956000      -6.24071800      -0.74678300       3.86021800      -6.57145679      -0.75610556       3.88114393
Fe       3.71160000       8.39321000       1.86324000       2.24845700      -0.43546600       0.28887200       2.36752746      -0.25186319       0.54119437
Fe       4.07810000       8.43915000       4.32840000       2.88035800       1.28304800      -0.49181300       2.93530963       1.47761990      -0.80423234
Fe       5.57499000       0.73262000       6.31633000      -3.12774100      -1.68249800      -0.98058200      -2.95468330      -1.73371808      -1.02839038
Fe       4.70712000       1.94493000       1.65492000      -2.04675700       4.97917500      -3.67899600      -2.14491051       4.83138729      -3.39637804
Fe       4.73401000       4.18392000       1.24748000       0.71501700       1.80608500      -0.06999200       0.69823163       1.99401754      -0.15225126
Fe       4.56687000       4.22266000       4.39618000       0.73801700       3.32591500      -2.10569900       0.59331322       3.47260107      -2.30427053
Fe       4.51224000       4.61167000       7.05684000       2.53211900      -0.41024200       0.53825400       2.97989283      -0.68503545       0.64367315
Fe       6.32808000       6.81945000       4.24288000      -3.20445400      -0.33519400      -1.28892300      -2.84785925      -0.28627759      -1.07368962
Fe       6.22240000       7.17309000       0.16230000      -3.30904600      -2.75215800       1.90373500      -3.54451352      -2.98288687       1.93569057
Fe       4.54224000       7.44382000       7.03838000       0.17895600      -5.02037800      -8.74618400       0.15318559      -5.29592516      -8.84550740
Fe       4.73272000       8.55832000       8.35561000      -0.10588400       8.96287400       6.54083400      -0.24943521       9.44150365       6.36502993
Fe       7.67285000       2.82429000       2.17742000      -2.12886900      -0.76272600      -2.06587500      -2.12541831      -0.72213024      -1.92457237
Fe       6.74071000       1.77406000       4.33655000       0.47479500       0.50025500      -0.42349800       0.13465600       0.51963062      -0.54668460
Fe       7.16362000       1.61896000       6.68131000       5.11373900       1.83737400       0.70818800       4.92772646       1.66221870       0.63859619
Fe       6.73653000       4.13840000       7.84564000       0.19062300       0.32905600       3.59274800       0.35107004       0.46202055       3.67421158
Fe       6.61248000       5.35948000       2.44590000       0.96755600      -0.77403900      -0.47053600       0.90475783      -0.76309705      -0.40356714
Fe       8.39074000       4.95678000       4.82580000       0.50677700       3.21370700       1.22596300       0.56415472       3.15338596       1.08586615
Fe       6.62275000       6.29700000       6.29237000       0.91106900      -0.58785400       1.74696000       0.85248435      -0.46574640       1.52042491
Fe       8.00875000       8.14674000       2.12563000      -1.25903800      -1.94608200      -3.37077000      -0.86080607      -1.95799397      -3.54006777
Fe       7.96861000       8.10559000       4.08816000       1.24434400       0.03207600       4.40361200       0.67417926      -0.03989258       4.62895734
B        3.14587000       1.61638000       2.59818000      -3.96044800      -1.57388800      -2.24367700      -4.09864948      -1.54494452      -2.21928985
B        4.07212000       1.93087000       3.78701000       0.55534200       0.12762300      -3.25123200       0.40713993      -0.02540034      -3.35768860
B        2.24412000       1.90783000       4.05913000      -1.80380000      -9.70850100      -5.48536600      -1.85196951      -9.88930977      -5.58123584
B        2.90130000       3.06657000       4.45062000       2.48509300       7.60479000      -1.50334300       2.78546297       7.10383487      -1.37522082
B        2.82587000       3.80138000       5.80651000       0.21675600       2.27927400       3.92227300       0.26986449       2.13283410       3.95043965
B        2.60929000       5.04297000       1.66311000       0.12617300      -0.77075900      -0.46531300      -0.02992746      -0.94811366      -0.48593302
B        2.47198000       4.95014000       4.32601000      -0.76752800      -1.31946700       0.35153300      -0.91584661      -1.14089703       0.35029963
B        2.73354000       7.81887000       7.66829000      -1.47869400      -0.15377200       0.00458000      -1.42398705      -0.13171560       0.09516959
B        5.68071000       2.28134000       7.79544000      -0.95924500       0.41857400       1.11780500      -1.06094019       0.37483315       1.11499480
B        7.77536000       3.70665000       3.76574000      -0.44877700      -1.48394500      -0.38974400      -0.49169759      -1.38784307      -0.18022659
Si       0.79518000       0.92195000       5.77957000      -1.66645900      -4.94136200      -1.10925300      -1.64305523      -5.08093808      -0.92014337
Si       0.88055000       4.20706000       6.73551000       1.15626000       3.58432200      -0.32349000       1.12904589       3.69976198      -0.29088744
Si       1.15025000       6.44729000       2.43826000      -7.77651300      -1.83655100      -1.54918700      -7.82993010      -1.66455879      -1.74862747
Si       2.82820000       3.29548000       0.50208000      -4.05499500       1.58525200       5.32597100      -4.12254369       1.39906224       5.18778685
Si       4.14031000       6.38272000       0.30005000      -2.16949800      -2.44928300       2.57761000      -2.30733498      -2.37486492       2.44736095
Si       3.68345000       6.43010000       5.01209000       3.98893100       0.98565200      -2.13453700       3.91948091       1.19685010      -2.03441774
Si       5.73751000       0.59059000       2.53265000       5.08228400      -4.90021500       2.23852200       5.18616580      -4.98783171       2.52922509
Si       4.51163000       2.47994000       5.36819000       2.60737700      -2.86786400       7.12589500       2.73639670      -2.59113254       7.29667440
Si       6.43436000       3.75222000       5.86206000       1.38008400       0.66155200      -3.64612400       1.50057581       0.67861861      -3.77909612
Si       8.06432000       7.52318000       8.55473000       2.36409700      -3.06603600      11.34847700       2.70878204      -2.74639056      11.36957920
18
Lattice="6.5 0.0 0.0 0.0 6.5 0.0 0.0 0.0 6.5" Properties=species:S:1:pos:R:3:REF_forces:R:3:MACE_forces:R:3 config_type=Fe12B3Si3 REF_energy=-113.87843945 MACE_energy=-112.44445352874004 pbc="T T T"
Fe       5.40234000       5.43492000       1.53729000      -1.39532100       2.04028400       0.71142300      -1.17074200       2.04733900       0.79085023
Fe       2.09750000       2.10361000       0.54730000       2.35673700      -0.33103000       1.27254800       2.71661837      -0.24261770       1.38556207
Fe       2.84360000       1.73250000       3.81271000       2.28004000      -1.18251600      -0.27344700       2.25498781      -1.08882560      -0.32745363
Fe       0.77541000       4.93717000       1.04317000       1.56096300      -3.83372900       1.76362000       1.54446348      -3.66494111       1.57132934
Fe       0.07665000       3.70431000       3.74351000      -0.75952900      -0.39175400      -2.23189700      -0.89066489      -0.47753422      -2.36276144
Fe       4.77171000       3.58949000       4.78220000      -1.99219600      -4.62409700       0.48420500      -1.79703830      -4.54494341       0.44147667
Fe       4.12430000       1.49867000       1.46476000       0.29771700      -2.38794700       0.28396300       0.35936233      -2.68722536       0.15704184
Fe       0.95387000       5.17746000       5.28728000      -0.57085000      -0.50160400      -1.80733600      -0.83226520      -0.67915610      -1.37039653
Fe       1.93602000       3.09888000       2.36598000      -0.08855100       0.43128300      -0.27209000      -0.24249237       0.57063559      -0.37870323
Fe       5.69037000       1.28357000       4.20026000      -0.40866000      -0.49067900       0.18976600      -0.69604461      -0.35784104       0.24787972
Fe       1.94321000       2.86141000       5.39871000      -0.55906500       0.73218900      -1.80086600      -0.67986855       1.10442665      -2.19727809
Fe       4.33122000       5.38124000       5.25469000      -0.73272900       4.56545400       1.52017900      -0.62117117       4.49009292       1.58794552
B        0.37598000       1.64060000       1.21420000      -3.21263000       2.85095800       0.76078000      -3.19125062       2.76422380       1.04023933
B        1.88110000       4.04794000       3.96741000       2.48956600       2.45119300      -0.32261600       2.51868062       2.26132825      -0.28616806
B        3.63878000       0.94242000       5.41981000      -0.01444500       0.67937600       0.95779200       0.02992942       0.78818793       1.07402442
Si       1.19380000       0.26963000       0.19686000       0.54051800       0.24528300      -1.93219100       0.60726824      -0.01106107      -1.88796587
Si       4.57825000       3.47658000       1.16117000       0.15934200       1.26766700      -0.81102600       0.21295556       1.35600200      -0.75523433
Si       1.09558000       0.76720000       2.75124000       0.04909300      -1.52033200       1.50719200      -0.12272813      -1.62809053       1.26961204
54
Lattice="8.579999685 0.0 0.0 0.0 8.579999685 0.0 0.0 0.0 8.5799996" Properties=species:S:1:pos:R:3:REF_forces:R:3:MACE_forces:R:3 config_type=Fe34B10Si10 REF_energy=-356.0869274 MACE_energy=-357.14311483777186 pbc="T T T"
Fe       0.92877000       1.08311000       2.12831000      -0.53214900      -1.15432400       0.53007800      -0.63336154      -1.15593929       0.46550425
Fe       1.12794000       0.45096000       7.37327000      -2.86345100       2.18226700       1.45805300      -2.73065047       2.06334452       1.42106636
Fe       0.91289000       3.61082000       1.96264000      -1.66570100       0.50807500      -4.76654600      -1.58329592       0.12973134      -4.50854658
Fe       0.97242000       3.25012000       3.83975000      -0.85629000      -1.23507100      -0.91491200      -1.11880433      -1.07182090      -0.61834441
Fe       1.43574000       3.84332000       5.84621000      -1.94378300      -0.72872400       4.94145300      -2.04808396      -0.53080942       4.73594522
Fe       0.45897000       5.99881000       1.32384000       1.86679900       1.45939200      -0.33976700       1.67846843       1.45967806      -0.15955961
Fe       0.05714000       6.25044000       6.01250000       0.66851500      -0.88142700       1.67028200       0.61365781      -0.75087525       1.71423467
Fe       1.87526000       7.05991000       7.27744000      -5.90957000       6.81146600       5.95768600      -5.62573269       6.98350570       5.78319973
Fe       4.21220000       0.80536000       3.81626000       0.44958900      -1.97725700       0.54591300       0.53779514      -1.81559416       0.45362427
Fe       2.64196000       0.75311000       5.88605000       0.80305000      -0.92688600      -1.50973400       0.50759825      -1.08692465      -1.51433045
Fe       2.51735000       4.27963000       7.86001000      -0.17185400       2.88247300       0.00075600      -0.18435356       3.06224235       0.06142312
Fe       2.46175000       4.76211000       4.38544000       2.27245000       6.36429500      -0.60000700       2.30232253       6.36837365      -0.48808343
Fe       3.99132000       4.46692000       6.09268000      -0.21521200      -1.96607600      -0.25853400      -0.31468966      -2.18855150      -0.13772318
Fe       4.03283000       6.20484000       2.50717000       0.32509400      -1.83048700       1.07686200       0.37062574      -1.77824313       1.10593861
Fe       2.62183000       8.12097000       1.25125000      -5.45108600      -1.04608100      -0.88869000      -5.58355453      -1.10692425      -0.67643390
Fe       2.34208000       7.49949000       3.33705000      -1.45221900       0.10179900       1.96325000      -1.29960883       0.10302150       1.58491413
Fe       4.67554000       0.98699000       8.35162000       1.97529500       0.95938300       0.07305200       1.71136175       0.85501929       0.32041254
Fe       4.68615000       2.28426000       1.60336000       6.03713100       4.39249100       1.56082500       6.16934988       4.36359646       1.12148510
Fe       4.95897000       4.28949000       0.91503000       1.24258400       3.77490300      -1.07876200       0.79139700       3.54746892      -1.17430758
Fe       5.62605000       3.84953000       3.25301000      -4.56775200       3.43217100       2.09526400      -4.70696393       3.44691181       1.92018489
Fe       5.63153000       5.70233000       4.67966000       0.04558900       0.36352900      -0.74034800       0.11682352      -0.05113131      -0.59590964
Fe       5.00954000       6.14620000       6.89198000       4.51113600      -2.60361300       1.43664400       4.56269113      -2.56153879       1.28933592
Fe       5.34723000       7.32984000       0.56425000       3.41130600      -7.55812200      -7.44238600       3.23501867      -7.13371553      -7.09995663
Fe       4.57141000       8.20633000       1.67615000      -2.51651100       6.57056000       9.11650700      -2.32886127       6.17810467       8.81029286
Fe       5.67084000       7.83697000       6.02451000      -0.02983000       3.57151200       0.33120700      -0.05651831       3.67606491       0.45959552
Fe       7.65837000       1.05332000       0.64336000       1.95813700       2.93603900      -3.62028800       1.80003475       2.80918629      -3.41043499
Fe       7.23579000       1.49494000       3.62009000       0.88838800      -1.50203300       3.00240400       1.07137648      -1.50114118       3.00008920
Fe       6.96409000       1.59543000       6.70415000       0.40175100      -2.57633900      -0.54943900       0.44043555      -2.39202672      -0.47976343
Fe       6.97946000       3.05325000       2.27831000       3.01329100      -2.85779700      -7.80747400       2.63455653      -2.88016411      -7.41537438
Fe       7.05854000       3.62734000       7.13255000       0.94483300       2.42104600       2.56329500       0.99888279       2.28427916       2.36222579
Fe       7.47490000       4.49325000       0.92243000      -3.13561000       0.06366500       0.11142200      -2.80711269       0.40508803      -0.13176808
Fe       7.76499000       5.40883000       4.05655000       3.42051700      -2.49950500       1.10150300       3.61465696      -2.66294724       1.14456142
Fe       6.91686000       6.16423000       2.38917000      -4.34160700       0.52717700      -3.24358900      -4.36710138       0.85590907      -3.25049509
Fe       7.31773000       7.39473000       4.73130000      -1.41907300       3.06948200       1.38572900      -1.45207317       2.98007531       1.32687661
B        1.63947000       5.44017000       2.85377000      -1.37965300       1.67099600      -0.34434500      -1.43494290       1.75414763      -0.53896789
B        3.47444000       1.29905000       1.69513000      -6.04542900      -7.46227000      -1.52467000      -6.12614578      -6.97217530      -1.28672643
B        2.31673000       1.42955000       3.77944000      -1.85652800      -2.14982900       3.21956500      -1.83402297      -1.94113984       3.29551788
B        3.17088000       0.01260000       8.16689000      -2.14308300      -0.12737100      -3.63430700      -2.09460898       0.13011439      -3.46687876
B        2.48887000       2.23189000       2.44876000      -1.30373000       3.96631200      -0.94871100      -0.90691450       3.68840367      -1.22958451
B        3.55016000       3.21990000       0.17024000       2.13469500      -3.52588700       0.23974700       2.15850312      -3.58850930       0.38365384
B        3.12966000       3.07291000       4.24572000      -6.99085300       0.34377600      -0.16579100      -6.83723089       0.10568280      -0.17741512
B        2.38358000       5.95301000       6.34325000       2.25901800      -8.76611800      -6.31465800       2.11382186      -9.05800330      -6.42343993
B        4.46260000       2.62992000       4.23823000       7.08507900      -1.75449200       0.40993300       6.94710115      -1.82872111       0.36167030
B        7.51183000       3.59374000       3.85724000       1.49621300      -1.20378300       3.39561400       1.49702770      -1.01349436       3.23039042
Si       0.50050000       1.66927000       5.10425000      -1.02554400      -2.67263500       2.61432900      -0.78473967      -2.97731319       2.55871667
Si       0.41923000       4.50138000       8.15701000       0.82744200      -0.47721100      -2.57541600       1.11050683      -0.44033708      -2.75478909
Si       2.90131000       4.25049000       1.93860000       2.71957100       0.04497600      -0.88170100       2.69560227       0.00019948      -1.02001425
Si       3.74353000       6.85388000       5.19884000      -1.20766000       1.80214700      -2.20114300      -1.07387517       1.93529945      -2.07591482
Si       3.54209000       6.47938000       8.21357000      -0.45014500      -1.75854100       4.24377300      -0.57736819      -2.01727327       4.41056192
Si       4.55252000       1.74669000       6.40118000       0.28733400       0.20348600      -1.69136000       0.28617830       0.22954376      -1.64924319
Si       5.87020000       3.30923000       5.41310000       1.93974000       0.55942400      -1.14043100       1.68064669       0.82259207      -1.23950737
Si       6.68392000       0.09389000       2.07850000      -2.78148600      -1.30329400       2.70552900      -2.56348780      -1.24232663       2.85283284
Si       7.30980000       7.36953000       0.08595000       4.18267400      -0.22507900      -1.67891000       4.40785774      -0.38026453      -1.74769312
Si       8.41387000       7.50606000       2.97540000       5.08859000       1.78741200      -0.88875800       5.01980449       1.89032106      -0.90304818
54
Lattice="8.579999685 0.0 0.0 0.0 8.579999685 0.0 0.0 0.0 8.5799996" Properties=species:S:1:pos:R:3:REF_forces:R:3:MACE_forces:R:3 config_type=Fe34B10Si10 REF_energy=-359.84864784 MACE_energy=-360.4764442544356 pbc="T T T"
Fe       0.39531000       2.37288000       0.87042000       3.27925500       2.43832800      -1.60261100       3.17941340       2.62460541      -1.70398340
Fe       0.75383000       1.65209000       3.11094000       1.30783500      -0.34615400      -0.09267000       1.37095344      -0.70850267       0.04480517
Fe       1.33201000       3.79282000       7.26231000      -2.40668100      -1.18131200       0.32245500      -2.53413470      -1.18074319       0.20568551
Fe       0.64436000       4.41396000       2.97573000       2.42004200      -2.26182600       0.38963900       2.45790313      -2.06307916       0.21977930
Fe       0.14751000       6.42079000       3.51005000      -3.07002100       1.32407200      -2.30638400      -3.17295474       1.32981012      -2.48399739