54
Lattice="8.579999685 0.0 0.0 0.0 8.579999685 0.0 0.0 0.0 8.5799996" Properties=species:S:1:pos:R:3:REF_forces:R:3:MACE_forces:R:3 config_type=Fe34B10Si10 REF_energy=-352.89092233 MACE_energy=-353.2017783339475 pbc="T T T"
Fe       1.46495000       0.71583000       1.12880000       3.73230100      -3.41607500      -3.76209700       3.61103620      -3.42622457      -3.46705671
Fe       0.56244000       2.07917000       1.96452000      -3.31290700       4.06628900       2.54508600      -3.34232935       4.05449250       2.33332706
Fe       0.86636000       2.12990000       5.00906000     -10.85567700      -2.87102900      12.20968700     -10.88624053      -2.93952073      12.20420135
Fe       0.24697000       2.61233000       7.83061000      -0.37811800      -2.03816900      -0.08744800      -0.37277707      -2.03626720       0.07294764
Fe       0.35437000       4.66395000       8.16447000      -1.30300600       1.62250000       0.84662400      -1.35543649       1.77899401       0.76484800
Fe       0.83543000       8.00840000       3.01492000       5.54921000      -2.55787300       0.52513800       5.63032268      -2.62626801       0.48000571
Fe       2.03952000       7.84431000       6.63062000      -4.28706100       1.82495200      -1.68802900      -4.11135174       2.02375209      -1.75476015
Fe       3.34318000       0.11090000       2.96052000      -0.46571400      -0.35056300       0.37864800      -0.49611546      -0.16676835       0.45839796
Fe       3.26317000       2.11539000       1.48699000      -3.47884800      -0.03222100       0.61542300      -3.31442893      -0.24412669       0.26159277
Fe       4.14313000       2.75755000       3.31065000      -0.71378000      -2.73118300       1.93004800      -0.68042649      -2.44905925       1.87732040
Fe       2.55051000       2.67374000       7.19710000      -2.55215900      -0.93589000       1.77261600      -2.22299413      -1.02419892       1.68676236
Fe       3.61327000       2.86500000       5.46497000       1.55763200       0.20514300      -0.56676300       1.45176673       0.27941241      -0.29015187
Fe       2.62400000       4.72550000       1.39174000      -1.08585200      -1.19598700       0.59645400      -1.33118144      -0.99444235       0.67212967
Fe       2.20317000       5.21693000       3.87451000      -3.92870900      -4.38103900      -4.92199500      -3.95025671      -4.36055480      -5.12364328
Fe       3.93082000       4.37819000       8.08226000       1.07616800       0.44807800      -0.99700400       0.92373132       0.21911171      -0.99631007
Fe       2.44961000       7.01753000       1.08943000       0.32119000      -1.55635000       3.27006500       0.43975119      -1.57863511       3.35439828
Fe       3.02500000       6.15780000       5.08193000      -1.08486800       1.64126100       3.95415400      -0.25593173       1.83014885       4.15343207
Fe       5.77712000       0.44616000       0.16142000      -2.43333700       0.07175000       4.13474700      -2.40699321       0.40997631       4.17776705
Fe       5.66964000       0.14892000       2.95259000      -3.67617900       1.90971100       0.12919700      -3.68191156       1.64761889       0.32955328
Fe       5.39484000       2.66317000       1.55162000       4.08183700      -3.39937100       3.88213200       4.00214615      -3.76540145       4.17354126
Fe       5.91309000       3.40423000       8.31953000       8.90196200       5.48305700      -2.72562400       8.75912445       5.37894925      -2.76807629
Fe       4.96126000       4.63305000       3.41410000      -3.60269200      -2.00302700       2.25051900      -3.87445131      -2.38377498       2.42624277
Fe       5.11347000       6.81217000       1.78872000      -0.87770500       0.06714300      -1.61156800      -0.74253021       0.14498878      -1.68807564
Fe       5.00950000       6.45991000       8.24507000      -2.30619500      -0.19808200      -1.52355700      -2.20973632      -0.01592847      -1.79866160
Fe       4.64263000       7.71190000       5.75084000       2.50156800       4.23919200      -1.55456800       2.55977160       4.30195545      -1.62941501
Fe       7.32285000       0.33022000       5.03535000      -0.99210900      -0.59745100       4.73628300      -0.93359811      -0.34524981       4.68901204
Fe       6.75330000       1.32958000       7.05071000       0.53851300       2.01290400       0.36400700       0.49026071       1.85582774       0.33409457
Fe       6.82686000       2.53028000       3.66692000      -0.08907100      -0.12987400      -0.26318300       0.02501190      -0.18260319      -0.19222838
Fe       6.83617000       5.56618000       0.59386000       1.74434500       1.47371700      -3.32847200       1.76080629       1.71851884      -3.47545751
Fe       8.27091000       4.29855000       2.87718000       3.23308900       0.33980500       1.37352500       3.07870618       0.17177356       1.32829464
Fe       6.58774000       4.90718000       4.97515000      -1.87594500       0.58060600      -0.05143700      -2.05215199       0.60067213      -0.47918850
Fe       6.86773000       6.79187000       3.27473000       1.52763600      -2.76254700       0.67579100       1.46530890      -2.42995413       0.36036913
Fe       8.09083000       8.29691000       0.84396000      -4.18921500      -1.95965200       9.56442300      -4.14612688      -2.19685581       9.66030862
Fe       6.62133000       7.67903000       7.47205000      -3.65417600       1.51975600      -3.32990400      -4.05220355       1.30096746      -3.47490896
B        3.45077000       6.81738000       6.75435000       2.04131500      -2.79808300       3.80923700       1.96763286      -2.92401925       3.91183696
B        4.67436000       1.10514000       4.73414000       0.75036200       0.95391600      -0.52852700       0.79450614       0.98247870      -0.41838191
B        6.18153000       2.20088000       5.47737000      -4.49435700      -3.20609500      -2.27763700      -4.64350530      -3.15878500      -2.50780682
B        5.08133000       4.10197000       6.35983000       0.35152900       0.25548900      -0.65354500       0.48076871       0.23522215      -0.55660363
B        4.48663000       4.29393000       1.40792000      -0.27448100       1.04603100       0.21283300      -0.24155522       1.25200777       0.21973680
B        4.96286000       5.88068000       6.14703000       0.60492000      -1.85032800       0.29314600       0.44167326      -1.82583796       0.12689738
B        8.17242000       5.65216000       5.55863000       1.00443800       0.65677900      -0.69824300       1.08459831       0.63756844      -0.24093040
B        7.98743000       6.92663000       6.60530000       5.86774900       2.58695800      -4.05103700       5.78833053       2.32362430      -3.45757448
B        7.10769000       5.72812000       6.91109000      -2.33709700      -3.34606800       1.34633400      -2.13763218      -3.44816467       1.48450573
B        7.81665000       6.81498000       8.33858000       5.04350100      -2.41043400       0.97359300       4.98108129      -2.58012574       0.45054198
Si       0.06983000       0.14925000       7.74742000       4.12649000       2.60901100      -8.87608100       3.95051058       2.53865718      -8.81727773
Si       1.93337000       2.41223000       3.74634000      10.14534600       2.98113100     -12.18526000      10.18986708       3.03139953     -12.00638566
Si       0.75978000       6.02813000       1.69309000      -4.13401100      -0.74920300       1.02787300      -4.13275645      -0.88777013       0.94096228
Si       2.22023000       5.10313000       7.16329000      -1.58663400       1.19675500      -1.89967800      -1.66091986       1.17075122      -1.85029427
Si       3.27754000       8.17117000       8.35443000       4.04667900       4.58101600      -2.24829100       3.88884048       4.49290229      -2.35316717
Si       4.48145000       2.18337000       8.34202000      -5.72220500      -5.96162700      -4.99603400      -5.45828823      -5.87242667      -5.17942337
Si       6.36439000       4.54151000       2.12641000       2.28764700      -2.33178900       1.39384200       2.60157524      -2.15694518       1.21133262
Si       4.52267000       6.51460000       3.75633000       0.42177200       5.22743800       1.25328700       0.12322926       5.32749731       1.35408127
Si       7.68278000       0.22257000       3.11016000      -0.17295300       4.89916800      -3.86478000      -0.21245683       4.86720451      -3.94020797
Si       7.35363000       3.38410000       6.13231000       4.40786200       1.27045000       2.62604800       4.41592922       1.44343505       2.96754571
54
Lattice="8.579999685 0.0 0.0 0.0 8.579999685 0.0 0.0 0.0 8.5799996" Properties=species:S:1:pos:R:3:REF_forces:R:3:MACE_forces:R:3 config_type=Fe34B10Si10 REF_energy=-354.71875992 MACE_energy=-355.2913370084423 pbc="T T T"
Fe       0.43313000       1.19321000       2.96848000       1.47291300       2.99028000       0.61180900       1.49360869       2.89954416       0.40186410
Fe       0.91365000       1.12516000       8.09995000       2.76260400      -2.00335600       1.20968300       2.39403855      -1.77909839       1.12914980
Fe       1.17142000       2.67870000       5.23446000      -1.90323000       6.04651700       0.58026800      -1.66449496       6.12408877       0.36221165
Fe       0.60772000       3.85484000       0.87278000       2.66909500       4.89444800       4.53699300       2.68126131       5.08962512       4.10680920
Fe       1.41565000       3.44858000       3.01161000      -0.29549500       2.03729500      -0.74017400      -0.00034662       1.93833303      -0.71363775
Fe       0.04226000       2.91249000       8.09734000      -3.39897200      -2.84207300      -2.69442200      -2.79067922      -2.99810358      -2.47214862
Fe       1.33282000       7.09057000       5.22634000      -0.45239700      -1.35392500       0.92503500      -0.23144932      -1.45105609       0.94000678
Fe       2.06045000       7.92051000       0.98063000      -3.11321000      -0.30108300      -2.49280600      -3.28714048      -0.43826111      -2.50992421
Fe       2.03627000       8.24295000       3.50701000      -1.42216600       4.38122900       0.88517600      -1.54578028       4.10033326       0.62924697
Fe       0.01253000       8.02686000       7.00667000       2.58679700       0.98610200     -11.80201700       2.48598392       0.85942126     -12.05347265
Fe       3.00353000       0.57289000       6.13981000      -1.03922300       0.18357300       0.93137300      -0.77546512       0.15504831       0.97863540
Fe       3.69949000       2.65196000       7.51811000       2.76433000      -4.34399200      -3.80269000       2.59771131      -4.14155870      -3.70978308
Fe       2.94478000       6.44154000       3.03987000       7.21319500      -3.66655800      -1.17614100       7.00433368      -3.43987114      -0.99711987
Fe       2.94309000       5.75189000       6.64956000      -6.24071800      -0.74678300       3.86021800      -6.44260022      -0.65365130       4.03918461
Fe       3.71160000       8.39321000       1.86324000       2.24845700      -0.43546600       0.28887200       2.41452290      -0.06377580       0.68277345
Fe       4.07810000       8.43915000       4.32840000       2.88035800       1.28304800      -0.49181300       2.85491111       1.29966066      -0.81351289
Fe       5.57499000       0.73262000       6.31633000      -3.12774100      -1.68249800      -0.98058200      -2.76463601      -1.76073196      -0.93346865
Fe       4.70712000       1.94493000       1.65492000      -2.04675700       4.97917500      -3.67899600      -2.09681889       4.74211535      -3.43293788
Fe       4.73401000       4.18392000       1.24748000       0.71501700       1.80608500      -0.06999200       0.70660067       1.96397114      -0.14131835
Fe       4.56687000       4.22266000       4.39618000       0.73801700       3.32591500      -2.10569900       0.48805718       3.18828000      -2.11087371
Fe       4.51224000       4.61167000       7.05684000       2.53211900      -0.41024200       0.53825400       2.95311641      -0.69658149       0.48582677
Fe       6.32808000       6.81945000       4.24288000      -3.20445400      -0.33519400      -1.28892300      -2.80121861      -0.23374405      -1.08380635
Fe       6.22240000       7.17309000       0.16230000      -3.30904600      -2.75215800       1.90373500      -3.45937465      -2.96395907       2.02367348
Fe       4.54224000       7.44382000       7.03838000       0.17895600      -5.02037800      -8.74618400       0.33923370      -5.28060046      -8.87044254
Fe       4.73272000       8.55832000       8.35561000      -0.10588400       8.96287400       6.54083400      -0.37620375       9.30761312       6.17056432
Fe       7.67285000       2.82429000       2.17742000      -2.12886900      -0.76272600      -2.06587500      -2.14779725      -0.80585275      -1.95920702
Fe       6.74071000       1.77406000       4.33655000       0.47479500       0.50025500      -0.42349800       0.06170895       0.40160745      -0.43119796
Fe       7.16362000       1.61896000       6.68131000       5.11373900       1.83737400       0.70818800       4.67704363       1.58331035       0.61892755
Fe       6.73653000       4.13840000       7.84564000       0.19062300       0.32905600       3.59274800       0.17531328       0.46470490       3.59379897
Fe       6.61248000       5.35948000       2.44590000       0.96755600      -0.77403900      -0.47053600       0.86953678      -0.67229355      -0.41167415
Fe       8.39074000       4.95678000       4.82580000       0.50677700       3.21370700       1.22596300       0.54330903       3.16969407       1.09451798
Fe       6.62275000       6.29700000       6.29237000       0.91106900      -0.58785400       1.74696000       0.82976266      -0.49842577       1.60605702
Fe       8.00875000       8.14674000       2.12563000      -1.25903800      -1.94608200      -3.37077000      -0.87334165      -1.86191454      -3.43602603
Fe       7.96861000       8.10559000       4.08816000       1.24434400       0.03207600       4.40361200       0.73258853       0.03378612       4.58543067
B        3.14587000       1.61638000       2.59818000      -3.96044800      -1.57388800      -2.24367700      -3.99236232      -1.47190232      -2.00958009
B        4.07212000       1.93087000       3.78701000       0.55534200       0.12762300      -3.25123200       0.35720588       0.13421401      -3.25870964
B        2.24412000       1.90783000       4.05913000      -1.80380000      -9.70850100      -5.48536600      -1.90133500     -10.11558751      -5.63046877
B        2.90130000       3.06657000       4.45062000       2.48509300       7.60479000      -1.50334300       2.85626945       7.27351578      -1.50484593
B        2.82587000       3.80138000       5.80651000       0.21675600       2.27927400       3.92227300       0.24460315       2.24804952       3.99623835
B        2.60929000       5.04297000       1.66311000       0.12617300      -0.77075900      -0.46531300      -0.00753524      -0.85363994      -0.47262598
B        2.47198000       4.95014000       4.32601000      -0.76752800      -1.31946700       0.35153300      -0.78907599      -1.20717013       0.46822684
B        2.73354000       7.81887000       7.66829000      -1.47869400      -0.15377200       0.00458000      -1.55357231      -0.16548158       0.23043504
B        5.68071000       2.28134000       7.79544000      -0.95924500       0.41857400       1.11780500      -0.97808850       0.40669414       1.09909194
B        7.77536000       3.70665000       3.76574000      -0.44877700      -1.48394500      -0.38974400      -0.53350584      -1.43534086      -0.09668415
Si       0.79518000       0.92195000       5.77957000      -1.66645900      -4.94136200      -1.10925300      -1.63337607      -4.96986104      -0.98173437
Si       0.88055000       4.20706000       6.73551000       1.15626000       3.58432200      -0.32349000       1.10179129       3.64691247      -0.21484494
Si       1.15025000       6.44729000       2.43826000      -7.77651300      -1.83655100      -1.54918700      -7.78541109      -1.73738926      -1.69979208
Si       2.82820000       3.29548000       0.50208000      -4.05499500       1.58525200       5.32597100      -4.04823613       1.35996844       5.25258900
Si       4.14031000       6.38272000       0.30005000      -2.16949800      -2.44928300       2.57761000      -2.34241284      -2.38067281       2.44521043
Si       3.68345000       6.43010000       5.01209000       3.98893100       0.98565200      -2.13453700       3.86685735       1.17041691      -2.19156737
Si       5.73751000       0.59059000       2.53265000       5.08228400      -4.90021500       2.23852200       5.10653524      -4.83742623       2.51338417
Si       4.51163000       2.47994000       5.36819000       2.60737700      -2.86786400       7.12589500       2.82513124      -2.57194342       7.12063683
Si       6.43436000       3.75222000       5.86206000       1.38008400       0.66155200      -3.64612400       1.48998280       0.69925668      -3.73032056
Si       8.06432000       7.52318000       8.55473000       2.36409700      -3.06603600      11.34847700       2.67123967      -2.77427016      11.29723426
18
Lattice="6.5 0.0 0.0 0.0 6.5 0.0 0.0 0.0 6.5" Properties=species:S:1:pos:R:3:REF_forces:R:3:MACE_forces:R:3 config_type=Fe12B3Si3 REF_energy=-113.87843945 MACE_energy=-113.0225186033731 pbc="T T T"
Fe       5.40234000       5.43492000       1.53729000      -1.39532100       2.04028400       0.71142300      -1.02445819       1.81488124       0.69896313
Fe       2.09750000       2.10361000       0.54730000       2.35673700      -0.33103000       1.27254800       2.58261720      -0.14849384       1.41656681
Fe       2.84360000       1.73250000       3.81271000       2.28004000      -1.18251600      -0.27344700       2.27258437      -1.01319434      -0.19749867
Fe       0.77541000       4.93717000       1.04317000       1.56096300      -3.83372900       1.76362000       1.19993087      -3.37763732       1.63602955
Fe       0.07665000       3.70431000       3.74351000      -0.75952900      -0.39175400      -2.23189700      -1.25272542      -0.47603064      -2.24458815
Fe       4.77171000       3.58949000       4.78220000      -1.99219600      -4.62409700       0.48420500      -1.61231048      -4.52835240       0.38036916
Fe       4.12430000       1.49867000       1.46476000       0.29771700      -2.38794700       0.28396300       0.22884839      -2.68341707       0.12094486
Fe       0.95387000       5.17746000       5.28728000      -0.57085000      -0.50160400      -1.80733600      -0.94060165      -0.63190763      -1.38456502
Fe       1.93602000       3.09888000       2.36598000      -0.08855100       0.43128300      -0.27209000      -0.20670537       0.45493694      -0.70988389
Fe       5.69037000       1.28357000       4.20026000      -0.40866000      -0.49067900       0.18976600      -0.86869058      -0.33613218       0.21230674
Fe       1.94321000       2.86141000       5.39871000      -0.55906500       0.73218900      -1.80086600      -0.43287624       0.67045460      -1.95431259
Fe       4.33122000       5.38124000       5.25469000      -0.73272900       4.56545400       1.52017900      -0.53047129       4.37588477       1.59229372
B        0.37598000       1.64060000       1.21420000      -3.21263000       2.85095800       0.76078000      -2.92996126       2.68631221       0.76304536
B        1.88110000       4.04794000       3.96741000       2.48956600       2.45119300      -0.32261600       2.66404657       2.45092605      -0.25298169
B        3.63878000       0.94242000       5.41981000      -0.01444500       0.67937600       0.95779200       0.10017758       0.80484360       1.07800365
Si       1.19380000       0.26963000       0.19686000       0.54051800       0.24528300      -1.93219100       0.61554542       0.05664969      -1.79627897
Si       4.57825000       3.47658000       1.16117000       0.15934200       1.26766700      -0.81102600       0.17396103       1.53521662      -0.83335488
Si       1.09558000       0.76720000       2.75124000       0.04909300      -1.52033200       1.50719200      -0.03891097      -1.65494030       1.47494085
54
Lattice="8.579999685 0.0 0.0 0.0 8.579999685 0.0 0.0 0.0 8.5799996" Properties=species:S:1:pos:R:3:REF_forces:R:3:MACE_forces:R:3 config_type=Fe34B10Si10 REF_energy=-356.0869274 MACE_energy=-356.9014945429052 pbc="T T T"
Fe       0.92877000       1.08311000       2.12831000      -0.53214900      -1.15432400       0.53007800      -0.74446122      -1.17750241       0.39031418
Fe       1.12794000       0.45096000       7.37327000      -2.86345100       2.18226700       1.45805300      -2.81246536       1.96584557       1.41671218
Fe       0.91289000       3.61082000       1.96264000      -1.66570100       0.50807500      -4.76654600      -1.75998547       0.39014344      -4.83188100
Fe       0.97242000       3.25012000       3.83975000      -0.85629000      -1.23507100      -0.91491200      -1.11826821      -1.26718288      -0.13350527
Fe       1.43574000       3.84332000       5.84621000      -1.94378300      -0.72872400       4.94145300      -2.08680591      -0.66836191       4.78891631
Fe       0.45897000       5.99881000       1.32384000       1.86679900       1.45939200      -0.33976700       1.63346962       1.50041044      -0.18426273
Fe       0.05714000       6.25044000       6.01250000       0.66851500      -0.88142700       1.67028200       0.65848088      -0.76444662       1.68078901
Fe       1.87526000       7.05991000       7.27744000      -5.90957000       6.81146600       5.95768600      -5.73457627       7.28648081       6.01774844
Fe       4.21220000       0.80536000       3.81626000       0.44958900      -1.97725700       0.54591300       0.45292948      -1.88425586       0.39497175
Fe       2.64196000       0.75311000       5.88605000       0.80305000      -0.92688600      -1.50973400       0.49361928      -1.02508343      -1.53265357
Fe       2.51735000       4.27963000       7.86001000      -0.17185400       2.88247300       0.00075600      -0.00829415       2.91755732       0.13686190
Fe       2.46175000       4.76211000       4.38544000       2.27245000       6.36429500      -0.60000700       2.20758621       6.39419696      -0.77316835
Fe       3.99132000       4.46692000       6.09268000      -0.21521200      -1.96607600      -0.25853400      -0.17443642      -2.30056577      -0.20239966
Fe       4.03283000       6.20484000       2.50717000       0.32509400      -1.83048700       1.07686200       0.40838795      -1.76439809       1.04844786
Fe       2.62183000       8.12097000       1.25125000      -5.45108600      -1.04608100      -0.88869000      -5.50451319      -1.15014421      -0.64058062
Fe       2.34208000       7.49949000       3.33705000      -1.45221900       0.10179900       1.96325000      -1.28115120       0.17099406       1.65046838
Fe       4.67554000       0.98699000       8.35162000       1.97529500       0.95938300       0.07305200       1.67154426       0.89112307       0.28721488
Fe       4.68615000       2.28426000       1.60336000       6.03713100       4.39249100       1.56082500       6.26436412       4.32638574       1.12398711
Fe       4.95897000       4.28949000       0.91503000       1.24258400       3.77490300      -1.07876200       0.85060933       3.59859407      -1.23346528
Fe       5.62605000       3.84953000       3.25301000      -4.56775200       3.43217100       2.09526400      -4.52787207       3.54886566       1.89305767
Fe       5.63153000       5.70233000       4.67966000       0.04558900       0.36352900      -0.74034800       0.02436427      -0.03986393      -0.58277148
Fe       5.00954000       6.14620000       6.89198000       4.51113600      -2.60361300       1.43664400       4.57805231      -2.36331479       1.44222574
Fe       5.34723000       7.32984000       0.56425000       3.41130600      -7.55812200      -7.44238600       3.53899019      -7.03208351      -7.27792342
Fe       4.57141000       8.20633000       1.67615000      -2.51651100       6.57056000       9.11650700      -2.71517057       6.03116700       8.73951829
Fe       5.67084000       7.83697000       6.02451000      -0.02983000       3.57151200       0.33120700      -0.01221389       3.58341252       0.32694225
Fe       7.65837000       1.05332000       0.64336000       1.95813700       2.93603900      -3.62028800       1.88108927       2.88588994      -3.56857338
Fe       7.23579000       1.49494000       3.62009000       0.88838800      -1.50203300       3.00240400       0.92702691      -1.46151249       3.09465791
Fe       6.96409000       1.59543000       6.70415000       0.40175100      -2.57633900      -0.54943900       0.53125147      -2.54027743      -0.60293045
Fe       6.97946000       3.05325000       2.27831000       3.01329100      -2.85779700      -7.80747400       2.47227733      -2.96401483      -7.30049608
Fe       7.05854000       3.62734000       7.13255000       0.94483300       2.42104600       2.56329500       1.04252159       2.49137666       2.51742524
Fe       7.47490000       4.49325000       0.92243000      -3.13561000       0.06366500       0.11142200      -2.87544216       0.50704273      -0.14289533
Fe       7.76499000       5.40883000       4.05655000       3.42051700      -2.49950500       1.10150300       3.49153724      -2.62633883       1.13568906
Fe       6.91686000       6.16423000       2.38917000      -4.34160700       0.52717700      -3.24358900      -4.32964173       0.54503850      -3.21944713
Fe       7.31773000       7.39473000       4.73130000      -1.41907300       3.06948200       1.38572900      -1.49810434       2.96903308       1.43159995
B        1.63947000       5.44017000       2.85377000      -1.37965300       1.67099600      -0.34434500      -1.50245600       1.78439066      -0.55698853
B        3.47444000       1.29905000       1.69513000      -6.04542900      -7.46227000      -1.52467000      -5.90162366      -7.12189422      -1.04945790
B        2.31673000       1.42955000       3.77944000      -1.85652800      -2.14982900       3.21956500      -1.68597720      -1.98386918       3.42399262
B        3.17088000       0.01260000       8.16689000      -2.14308300      -0.12737100      -3.63430700      -1.99751518       0.10685721      -3.59273727
B        2.48887000       2.23189000       2.44876000      -1.30373000       3.96631200      -0.94871100      -0.89976821       3.81884052      -1.29650643
B        3.55016000       3.21990000       0.17024000       2.13469500      -3.52588700       0.23974700       2.11645946      -3.41122996       0.30958142
B        3.12966000       3.07291000       4.24572000      -6.99085300       0.34377600      -0.16579100      -7.06551267       0.15388881      -0.15028315
B        2.38358000       5.95301000       6.34325000       2.25901800      -8.76611800      -6.31465800       2.15612034      -9.28872911      -6.58453230
B        4.46260000       2.62992000       4.23823000       7.08507900      -1.75449200       0.40993300       7.18265925      -1.89950428       0.45516544
B        7.51183000       3.59374000       3.85724000       1.49621300      -1.20378300       3.39561400       1.55936784      -1.05725930       3.21955728
Si       0.50050000       1.66927000       5.10425000      -1.02554400      -2.67263500       2.61432900      -0.78120306      -2.92255379       2.66427948
Si       0.41923000       4.50138000       8.15701000       0.82744200      -0.47721100      -2.57541600       1.07622874      -0.40744697      -2.89624959
Si       2.90131000       4.25049000       1.93860000       2.71957100       0.04497600      -0.88170100       2.88546243      -0.00710869      -1.08733710
Si       3.74353000       6.85388000       5.19884000      -1.20766000       1.80214700      -2.20114300      -1.05877721       2.07886232      -2.11877564
Si       3.54209000       6.47938000       8.21357000      -0.45014500      -1.75854100       4.24377300      -0.53763686      -2.02597810       4.42363457
Si       4.55252000       1.74669000       6.40118000       0.28733400       0.20348600      -1.69136000       0.21396648       0.11309560      -1.59041969
Si       5.87020000       3.30923000       5.41310000       1.93974000       0.55942400      -1.14043100       1.57256405       0.81254735      -1.07745333
Si       6.68392000       0.09389000       2.07850000      -2.78148600      -1.30329400       2.70552900      -2.42317771      -1.22763172       2.79074437
Si       7.30980000       7.36953000       0.08595000       4.18267400      -0.22507900      -1.67891000       4.11350294      -0.49250368      -1.68517904
Si       8.41387000       7.50606000       2.97540000       5.08859000       1.78741200      -0.88875800       5.03261668       2.00301597      -0.89162957
54
Lattice="8.579999685 0.0 0.0 0.0 8.579999685 0.0 0.0 0.0 8.5799996" Properties=species:S:1:pos:R:3:REF_forces:R:3:MACE_forces:R:3 config_type=Fe34B10Si10 REF_energy=-359.84864784 MACE_energy=-360.1187152418218 pbc="T T T"
Fe       0.39531000       2.37288000       0.87042000       3.27925500       2.43832800      -1.60261100       3.20609621       2.70185692      -1.74307452
Fe       0.75383000       1.65209000       3.11094000       1.30783500      -0.34615400      -0.09267000       1.28973457      -0.88931842       0.11611102
Fe       1.33201000       3.79282000       7.26231000      -2.40668100      -1.18131200       0.32245500      -2.61138891      -1.12112663       0.29878581
Fe       0.64436000       4.41396000       2.97573000       2.42004200      -2.26182600       0.38963900       2.49137934      -2.06562491       0.33569807
Fe       0.14751000       6.42079000       3.51005000      -3.07002100       1.32407200      -2.30638400      -3.05158034       1.26615764      -2.35822613