54
Lattice="8.579999685 0.0 0.0 0.0 8.579999685 0.0 0.0 0.0 8.5799996" Properties=species:S:1:pos:R:3:REF_forces:R:3:MACE_forces:R:3 config_type=Fe34B10Si10 REF_energy=-352.89092233 MACE_energy=-331.75586271223824 pbc="T T T"
Fe       1.46495000       0.71583000       1.12880000       3.73230100      -3.41607500      -3.76209700       3.65476654      -3.83452359      -3.53365299
Fe       0.56244000       2.07917000       1.96452000      -3.31290700       4.06628900       2.54508600      -3.60995138       4.33732944       2.55002030
Fe       0.86636000       2.12990000       5.00906000     -10.85567700      -2.87102900      12.20968700     -10.58048942      -2.80157854      11.67457706
Fe       0.24697000       2.61233000       7.83061000      -0.37811800      -2.03816900      -0.08744800      -0.35502239      -2.06947918      -0.04734811
Fe       0.35437000       4.66395000       8.16447000      -1.30300600       1.62250000       0.84662400      -1.46658711       1.77600781       0.75035025
Fe       0.83543000       8.00840000       3.01492000       5.54921000      -2.55787300       0.52513800       5.57174826      -2.50176498       0.44875367
Fe       2.03952000       7.84431000       6.63062000      -4.28706100       1.82495200      -1.68802900      -4.06307284       1.93688705      -1.89275663
Fe       3.34318000       0.11090000       2.96052000      -0.46571400      -0.35056300       0.37864800      -0.39505585      -0.19590592       0.58651660
Fe       3.26317000       2.11539000       1.48699000      -3.47884800      -0.03222100       0.61542300      -3.42211892      -0.20758495       0.34715169
Fe       4.14313000       2.75755000       3.31065000      -0.71378000      -2.73118300       1.93004800      -0.40945184      -2.52930236       1.84087455
Fe       2.55051000       2.67374000       7.19710000      -2.55215900      -0.93589000       1.77261600      -2.07692422      -0.93975422       1.58254170
Fe       3.61327000       2.86500000       5.46497000       1.55763200       0.20514300      -0.56676300       1.41538449       0.24446750      -0.26968624
Fe       2.62400000       4.72550000       1.39174000      -1.08585200      -1.19598700       0.59645400      -1.19959508      -1.06598147       0.64311272
Fe       2.20317000       5.21693000       3.87451000      -3.92870900      -4.38103900      -4.92199500      -4.73367530      -5.24164922      -6.26906420
Fe       3.93082000       4.37819000       8.08226000       1.07616800       0.44807800      -0.99700400       1.03326030       0.05251670      -1.02273972
Fe       2.44961000       7.01753000       1.08943000       0.32119000      -1.55635000       3.27006500       0.24512310      -1.53553204       3.36191809
Fe       3.02500000       6.15780000       5.08193000      -1.08486800       1.64126100       3.95415400       0.95988799       2.88698907       5.64804655
Fe       5.77712000       0.44616000       0.16142000      -2.43333700       0.07175000       4.13474700      -2.14867355       0.40620916       3.94512809
Fe       5.66964000       0.14892000       2.95259000      -3.67617900       1.90971100       0.12919700      -3.77866765       1.65531920       0.33422332
Fe       5.39484000       2.66317000       1.55162000       4.08183700      -3.39937100       3.88213200       3.92835183      -3.50209532       4.24899550
Fe       5.91309000       3.40423000       8.31953000       8.90196200       5.48305700      -2.72562400       8.45924154       5.26846235      -2.49582270
Fe       4.96126000       4.63305000       3.41410000      -3.60269200      -2.00302700       2.25051900      -3.57703387      -2.33642987       2.45154236
Fe       5.11347000       6.81217000       1.78872000      -0.87770500       0.06714300      -1.61156800      -0.74114575       0.11366259      -1.58853877
Fe       5.00950000       6.45991000       8.24507000      -2.30619500      -0.19808200      -1.52355700      -2.07781531       0.10567284      -1.98243552
Fe       4.64263000       7.71190000       5.75084000       2.50156800       4.23919200      -1.55456800       2.44629930       4.34023894      -1.76952402
Fe       7.32285000       0.33022000       5.03535000      -0.99210900      -0.59745100       4.73628300      -0.83652898      -0.28860792       4.63962051
Fe       6.75330000       1.32958000       7.05071000       0.53851300       2.01290400       0.36400700       0.47989381       1.87970459       0.46651043
Fe       6.82686000       2.53028000       3.66692000      -0.08907100      -0.12987400      -0.26318300      -0.17669749      -0.12948828      -0.28227989
Fe       6.83617000       5.56618000       0.59386000       1.74434500       1.47371700      -3.32847200       1.87692482       1.66422591      -3.36769343
Fe       8.27091000       4.29855000       2.87718000       3.23308900       0.33980500       1.37352500       2.91961960       0.15865047       1.31090395
Fe       6.58774000       4.90718000       4.97515000      -1.87594500       0.58060600      -0.05143700      -2.03762673       0.58941749      -0.56940903
Fe       6.86773000       6.79187000       3.27473000       1.52763600      -2.76254700       0.67579100       1.36359184      -2.51620819       0.33963916
Fe       8.09083000       8.29691000       0.84396000      -4.18921500      -1.95965200       9.56442300      -3.85305985      -1.87970708       9.75397476
Fe       6.62133000       7.67903000       7.47205000      -3.65417600       1.51975600      -3.32990400      -4.33769390       1.28310696      -3.29602524
B        3.45077000       6.81738000       6.75435000       2.04131500      -2.79808300       3.80923700       1.92938424      -3.09060979       3.91118284
B        4.67436000       1.10514000       4.73414000       0.75036200       0.95391600      -0.52852700       0.75018531       1.06921327      -0.48735957
B        6.18153000       2.20088000       5.47737000      -4.49435700      -3.20609500      -2.27763700      -4.44273589      -3.03544009      -2.41468511
B        5.08133000       4.10197000       6.35983000       0.35152900       0.25548900      -0.65354500       0.33808634       0.18324562      -0.51471877
B        4.48663000       4.29393000       1.40792000      -0.27448100       1.04603100       0.21283300      -0.31822072       1.22096772       0.13036765
B        4.96286000       5.88068000       6.14703000       0.60492000      -1.85032800       0.29314600       0.32762455      -1.74253001       0.26079547
B        8.17242000       5.65216000       5.55863000       1.00443800       0.65677900      -0.69824300       0.96723911       0.43685673      -0.38053894
B        7.98743000       6.92663000       6.60530000       5.86774900       2.58695800      -4.05103700       5.83592967       2.48308532      -3.43560181
B        7.10769000       5.72812000       6.91109000      -2.33709700      -3.34606800       1.34633400      -2.27692058      -3.61153286       1.56093963
B        7.81665000       6.81498000       8.33858000       5.04350100      -2.41043400       0.97359300       4.69289509      -2.65497415       0.42248201
Si       0.06983000       0.14925000       7.74742000       4.12649000       2.60901100      -8.87608100       3.77484030       2.63387235      -8.52680566
Si       1.93337000       2.41223000       3.74634000      10.14534600       2.98113100     -12.18526000       9.84774945       2.86754219     -11.55012513
Si       0.75978000       6.02813000       1.69309000      -4.13401100      -0.74920300       1.02787300      -4.00527134      -0.87744887       0.81325710
Si       2.22023000       5.10313000       7.16329000      -1.58663400       1.19675500      -1.89967800      -1.59566950       1.15746663      -1.98939143
Si       3.27754000       8.17117000       8.35443000       4.04667900       4.58101600      -2.24829100       4.03554178       4.50504749      -2.42077807
Si       4.48145000       2.18337000       8.34202000      -5.72220500      -5.96162700      -4.99603400      -5.29995191      -5.79584480      -5.37893743
Si       6.36439000       4.54151000       2.12641000       2.28764700      -2.33178900       1.39384200       2.62660166      -2.25989524       1.28611405
Si       4.52267000       6.51460000       3.75633000       0.42177200       5.22743800       1.25328700       0.11626514       5.28258113       1.24086239
Si       7.68278000       0.22257000       3.11016000      -0.17295300       4.89916800      -3.86478000      -0.06915793       4.80068562      -4.04147394
Si       7.35363000       3.38410000       6.13231000       4.40786200       1.27045000       2.62604800       4.28837926       1.30443680       2.97698996
54
Lattice="8.579999685 0.0 0.0 0.0 8.579999685 0.0 0.0 0.0 8.5799996" Properties=species:S:1:pos:R:3:REF_forces:R:3:MACE_forces:R:3 config_type=Fe34B10Si10 REF_energy=-354.71875992 MACE_energy=-333.4220983140023 pbc="T T T"
Fe       0.43313000       1.19321000       2.96848000       1.47291300       2.99028000       0.61180900       1.74477076       2.94925886       0.54437036
Fe       0.91365000       1.12516000       8.09995000       2.76260400      -2.00335600       1.20968300       2.65724559      -1.83972643       1.23551345
Fe       1.17142000       2.67870000       5.23446000      -1.90323000       6.04651700       0.58026800      -1.52252621       5.92427198       0.40857106
Fe       0.60772000       3.85484000       0.87278000       2.66909500       4.89444800       4.53699300       3.37298218       6.02338466       5.53456508
Fe       1.41565000       3.44858000       3.01161000      -0.29549500       2.03729500      -0.74017400      -0.14177442       2.09181591      -0.80546651
Fe       0.04226000       2.91249000       8.09734000      -3.39897200      -2.84207300      -2.69442200      -3.85757912      -3.84966499      -4.06115707
Fe       1.33282000       7.09057000       5.22634000      -0.45239700      -1.35392500       0.92503500      -0.08643069      -1.33562885       0.75993535
Fe       2.06045000       7.92051000       0.98063000      -3.11321000      -0.30108300      -2.49280600      -3.36932615      -0.56058404      -2.74948898
Fe       2.03627000       8.24295000       3.50701000      -1.42216600       4.38122900       0.88517600      -1.44955455       3.98709941       0.71553430
Fe       0.01253000       8.02686000       7.00667000       2.58679700       0.98610200     -11.80201700       2.32736455       0.82037134     -12.06308245
Fe       3.00353000       0.57289000       6.13981000      -1.03922300       0.18357300       0.93137300      -0.78765528       0.19231394       0.98142873
Fe       3.69949000       2.65196000       7.51811000       2.76433000      -4.34399200      -3.80269000       2.61519642      -4.06229087      -3.92452003
Fe       2.94478000       6.44154000       3.03987000       7.21319500      -3.66655800      -1.17614100       6.79917255      -3.07066261      -1.16305330
Fe       2.94309000       5.75189000       6.64956000      -6.24071800      -0.74678300       3.86021800      -6.18684263      -0.83372314       3.91177954
Fe       3.71160000       8.39321000       1.86324000       2.24845700      -0.43546600       0.28887200       2.65982828      -0.21434728       0.89968358
Fe       4.07810000       8.43915000       4.32840000       2.88035800       1.28304800      -0.49181300       2.79503256       1.32965650      -0.83056573
Fe       5.57499000       0.73262000       6.31633000      -3.12774100      -1.68249800      -0.98058200      -3.05440735      -1.94636003      -0.85183270
Fe       4.70712000       1.94493000       1.65492000      -2.04675700       4.97917500      -3.67899600      -2.19814153       4.67169336      -3.33430770
Fe       4.73401000       4.18392000       1.24748000       0.71501700       1.80608500      -0.06999200       0.63898585       1.94374200      -0.17504157
Fe       4.56687000       4.22266000       4.39618000       0.73801700       3.32591500      -2.10569900       0.30424012       3.13582369      -2.06948960
Fe       4.51224000       4.61167000       7.05684000       2.53211900      -0.41024200       0.53825400       2.67293441      -0.62954229       0.55931139
Fe       6.32808000       6.81945000       4.24288000      -3.20445400      -0.33519400      -1.28892300      -2.45127440      -0.20591644      -1.13734823
Fe       6.22240000       7.17309000       0.16230000      -3.30904600      -2.75215800       1.90373500      -3.12156402      -2.88252708       1.99640496
Fe       4.54224000       7.44382000       7.03838000       0.17895600      -5.02037800      -8.74618400       0.38143530      -5.64973209      -9.53076363
Fe       4.73272000       8.55832000       8.35561000      -0.10588400       8.96287400       6.54083400      -0.56307299       9.78565450       6.59258514
Fe       7.67285000       2.82429000       2.17742000      -2.12886900      -0.76272600      -2.06587500      -2.04363057      -0.70833873      -1.81732640
Fe       6.74071000       1.77406000       4.33655000       0.47479500       0.50025500      -0.42349800      -0.04007711       0.28966592      -0.42496132
Fe       7.16362000       1.61896000       6.68131000       5.11373900       1.83737400       0.70818800       4.90502775       1.67944309       0.76768614
Fe       6.73653000       4.13840000       7.84564000       0.19062300       0.32905600       3.59274800       0.19080613       0.39318749       3.44320688
Fe       6.61248000       5.35948000       2.44590000       0.96755600      -0.77403900      -0.47053600       0.80780002      -0.62226468      -0.30865050
Fe       8.39074000       4.95678000       4.82580000       0.50677700       3.21370700       1.22596300       0.45617778       3.18017546       0.99753506
Fe       6.62275000       6.29700000       6.29237000       0.91106900      -0.58785400       1.74696000       0.76561286      -0.47082292       1.41296896
Fe       8.00875000       8.14674000       2.12563000      -1.25903800      -1.94608200      -3.37077000      -0.92671957      -1.82518523      -3.49465484
Fe       7.96861000       8.10559000       4.08816000       1.24434400       0.03207600       4.40361200       0.53942230      -0.16902595       4.61605283
B        3.14587000       1.61638000       2.59818000      -3.96044800      -1.57388800      -2.24367700      -4.08482278      -1.55185296      -2.09157947
B        4.07212000       1.93087000       3.78701000       0.55534200       0.12762300      -3.25123200       0.51238032       0.28993312      -3.06423712
B        2.24412000       1.90783000       4.05913000      -1.80380000      -9.70850100      -5.48536600      -1.80534270     -10.05309556      -5.48485800
B        2.90130000       3.06657000       4.45062000       2.48509300       7.60479000      -1.50334300       2.77828354       7.11934598      -1.56686677
B        2.82587000       3.80138000       5.80651000       0.21675600       2.27927400       3.92227300       0.19366907       2.49314134       4.22179644
B        2.60929000       5.04297000       1.66311000       0.12617300      -0.77075900      -0.46531300       0.05045892      -0.84205957      -0.36854392
B        2.47198000       4.95014000       4.32601000      -0.76752800      -1.31946700       0.35153300      -0.76454239      -1.44876771       0.65984199
B        2.73354000       7.81887000       7.66829000      -1.47869400      -0.15377200       0.00458000      -1.50543138      -0.03524555       0.37525837
B        5.68071000       2.28134000       7.79544000      -0.95924500       0.41857400       1.11780500      -0.87780665       0.35426488       1.03839097
B        7.77536000       3.70665000       3.76574000      -0.44877700      -1.48394500      -0.38974400      -0.38254700      -1.50588572      -0.13088999
Si       0.79518000       0.92195000       5.77957000      -1.66645900      -4.94136200      -1.10925300      -1.67791673      -4.78879374      -1.08383057
Si       0.88055000       4.20706000       6.73551000       1.15626000       3.58432200      -0.32349000       1.19869913       3.60456729      -0.30863038
Si       1.15025000       6.44729000       2.43826000      -7.77651300      -1.83655100      -1.54918700      -7.73140183      -1.63529714      -1.71346545
Si       2.82820000       3.29548000       0.50208000      -4.05499500       1.58525200       5.32597100      -3.95565567       1.25807571       5.20962289
Si       4.14031000       6.38272000       0.30005000      -2.16949800      -2.44928300       2.57761000      -2.40373460      -2.36726716       2.37016153
Si       3.68345000       6.43010000       5.01209000       3.98893100       0.98565200      -2.13453700       3.79434046       1.20352813      -2.14433912
Si       5.73751000       0.59059000       2.53265000       5.08228400      -4.90021500       2.23852200       5.08820602      -4.87293435       2.51813034
Si       4.51163000       2.47994000       5.36819000       2.60737700      -2.86786400       7.12589500       2.74007878      -2.65114787       7.00863394
Si       6.43436000       3.75222000       5.86206000       1.38008400       0.66155200      -3.64612400       1.57255555       0.67370138      -3.47303307
Si       8.06432000       7.52318000       8.55473000       2.36409700      -3.06603600      11.34847700       2.42707114      -2.76542494      11.39301515
18
Lattice="6.5 0.0 0.0 0.0 6.5 0.0 0.0 0.0 6.5" Properties=species:S:1:pos:R:3:REF_forces:R:3:MACE_forces:R:3 config_type=Fe12B3Si3 REF_energy=-113.87843945 MACE_energy=-106.64933046292313 pbc="T T T"
Fe       5.40234000       5.43492000       1.53729000      -1.39532100       2.04028400       0.71142300      -1.24931727       1.97279028       0.74740191
Fe       2.09750000       2.10361000       0.54730000       2.35673700      -0.33103000       1.27254800       2.49329486      -0.57010821       2.53125042
Fe       2.84360000       1.73250000       3.81271000       2.28004000      -1.18251600      -0.27344700       2.36874375      -1.05830316      -0.15607446
Fe       0.77541000       4.93717000       1.04317000       1.56096300      -3.83372900       1.76362000       1.34495506      -3.42431792       1.64731542
Fe       0.07665000       3.70431000       3.74351000      -0.75952900      -0.39175400      -2.23189700      -1.37287672      -0.47435305      -2.13199561
Fe       4.77171000       3.58949000       4.78220000      -1.99219600      -4.62409700       0.48420500      -1.60801070      -4.79120998       0.33396221
Fe       4.12430000       1.49867000       1.46476000       0.29771700      -2.38794700       0.28396300       0.13536124      -2.52608701       0.24975129
Fe       0.95387000       5.17746000       5.28728000      -0.57085000      -0.50160400      -1.80733600      -0.94001481      -0.50349842      -1.41759659
Fe       1.93602000       3.09888000       2.36598000      -0.08855100       0.43128300      -0.27209000      -0.07236265       0.44087670      -0.69801159
Fe       5.69037000       1.28357000       4.20026000      -0.40866000      -0.49067900       0.18976600      -0.89708365      -0.42215150       0.24181090
Fe       1.94321000       2.86141000       5.39871000      -0.55906500       0.73218900      -1.80086600      -0.46925808       1.08437461      -2.99224821
Fe       4.33122000       5.38124000       5.25469000      -0.73272900       4.56545400       1.52017900      -0.62468015       4.69865473       1.66958761
B        0.37598000       1.64060000       1.21420000      -3.21263000       2.85095800       0.76078000      -2.53419778       2.75813162       0.43662397
B        1.88110000       4.04794000       3.96741000       2.48956600       2.45119300      -0.32261600       2.69472874       2.26400318      -0.18053982
B        3.63878000       0.94242000       5.41981000      -0.01444500       0.67937600       0.95779200      -0.06897622       0.78152056       0.94543140
Si       1.19380000       0.26963000       0.19686000       0.54051800       0.24528300      -1.93219100       0.66702255       0.12354137      -1.74955308
Si       4.57825000       3.47658000       1.16117000       0.15934200       1.26766700      -0.81102600       0.08925860       1.36017940      -0.89128051
Si       1.09558000       0.76720000       2.75124000       0.04909300      -1.52033200       1.50719200       0.04341323      -1.71404320       1.41416475
54
Lattice="8.579999685 0.0 0.0 0.0 8.579999685 0.0 0.0 0.0 8.5799996" Properties=species:S:1:pos:R:3:REF_forces:R:3:MACE_forces:R:3 config_type=Fe34B10Si10 REF_energy=-356.0869274 MACE_energy=-335.01899794095857 pbc="T T T"
Fe       0.92877000       1.08311000       2.12831000      -0.53214900      -1.15432400       0.53007800      -0.72838431      -1.03312133       0.44693232
Fe       1.12794000       0.45096000       7.37327000      -2.86345100       2.18226700       1.45805300      -2.63934989       1.79910562       1.16316081
Fe       0.91289000       3.61082000       1.96264000      -1.66570100       0.50807500      -4.76654600      -1.97568797       0.29690233      -4.76763047
Fe       0.97242000       3.25012000       3.83975000      -0.85629000      -1.23507100      -0.91491200      -1.06939387      -1.30988470       0.01755697
Fe       1.43574000       3.84332000       5.84621000      -1.94378300      -0.72872400       4.94145300      -2.16327657      -0.70442366       4.80532567
Fe       0.45897000       5.99881000       1.32384000       1.86679900       1.45939200      -0.33976700       1.57751543       1.37889840      -0.10560334
Fe       0.05714000       6.25044000       6.01250000       0.66851500      -0.88142700       1.67028200       0.53308691      -0.69503739       1.53183232
Fe       1.87526000       7.05991000       7.27744000      -5.90957000       6.81146600       5.95768600      -5.66848349       7.34259590       5.65164578
Fe       4.21220000       0.80536000       3.81626000       0.44958900      -1.97725700       0.54591300       0.34057924      -1.83245438       0.40828299
Fe       2.64196000       0.75311000       5.88605000       0.80305000      -0.92688600      -1.50973400       0.32796807      -1.05006803      -1.33546451
Fe       2.51735000       4.27963000       7.86001000      -0.17185400       2.88247300       0.00075600       0.11028260       2.84996270       0.04857265
Fe       2.46175000       4.76211000       4.38544000       2.27245000       6.36429500      -0.60000700       2.38665079       6.39192800      -0.75805650
Fe       3.99132000       4.46692000       6.09268000      -0.21521200      -1.96607600      -0.25853400      -0.26374231      -2.31447386      -0.21615740
Fe       4.03283000       6.20484000       2.50717000       0.32509400      -1.83048700       1.07686200       0.40403364      -1.85194451       1.00196707
Fe       2.62183000       8.12097000       1.25125000      -5.45108600      -1.04608100      -0.88869000      -5.44370180      -1.15581197      -0.86150513
Fe       2.34208000       7.49949000       3.33705000      -1.45221900       0.10179900       1.96325000      -1.32094530       0.08099370       1.58741714
Fe       4.67554000       0.98699000       8.35162000       1.97529500       0.95938300       0.07305200       1.58990043       0.83348529       0.37219071
Fe       4.68615000       2.28426000       1.60336000       6.03713100       4.39249100       1.56082500       5.86747186       4.22149962       1.01531145
Fe       4.95897000       4.28949000       0.91503000       1.24258400       3.77490300      -1.07876200       0.92713845       3.47707994      -1.17278351
Fe       5.62605000       3.84953000       3.25301000      -4.56775200       3.43217100       2.09526400      -4.67157553       3.41012814       2.17606620
Fe       5.63153000       5.70233000       4.67966000       0.04558900       0.36352900      -0.74034800       0.12017069       0.05485664      -0.67000131
Fe       5.00954000       6.14620000       6.89198000       4.51113600      -2.60361300       1.43664400       4.56918579      -2.28021967       1.42447670
Fe       5.34723000       7.32984000       0.56425000       3.41130600      -7.55812200      -7.44238600       5.62811710      -9.27571581     -10.34435704
Fe       4.57141000       8.20633000       1.67615000      -2.51651100       6.57056000       9.11650700      -4.91497640       8.46415183      11.80363116
Fe       5.67084000       7.83697000       6.02451000      -0.02983000       3.57151200       0.33120700       0.13193466       3.33193095       0.34501779
Fe       7.65837000       1.05332000       0.64336000       1.95813700       2.93603900      -3.62028800       1.82445886       2.83368356      -3.40860548
Fe       7.23579000       1.49494000       3.62009000       0.88838800      -1.50203300       3.00240400       0.90550497      -1.44501808       2.88843863
Fe       6.96409000       1.59543000       6.70415000       0.40175100      -2.57633900      -0.54943900       0.52986644      -2.38040154      -0.64735153
Fe       6.97946000       3.05325000       2.27831000       3.01329100      -2.85779700      -7.80747400       2.72458635      -3.06465612      -7.30912371
Fe       7.05854000       3.62734000       7.13255000       0.94483300       2.42104600       2.56329500       1.08841270       2.37188423       2.50198559
Fe       7.47490000       4.49325000       0.92243000      -3.13561000       0.06366500       0.11142200      -2.64072035       0.52200291      -0.09230545
Fe       7.76499000       5.40883000       4.05655000       3.42051700      -2.49950500       1.10150300       3.31245145      -2.51241670       1.15461637
Fe       6.91686000       6.16423000       2.38917000      -4.34160700       0.52717700      -3.24358900      -4.39319477       0.49463789      -3.19176968
Fe       7.31773000       7.39473000       4.73130000      -1.41907300       3.06948200       1.38572900      -1.55197134       2.78771716       1.49151077
B        1.63947000       5.44017000       2.85377000      -1.37965300       1.67099600      -0.34434500      -1.35191691       1.64670850      -0.45993291
B        3.47444000       1.29905000       1.69513000      -6.04542900      -7.46227000      -1.52467000      -5.63507037      -6.76552703      -0.87349932
B        2.31673000       1.42955000       3.77944000      -1.85652800      -2.14982900       3.21956500      -1.74164528      -1.88767180       3.60081797
B        3.17088000       0.01260000       8.16689000      -2.14308300      -0.12737100      -3.63430700      -1.73745876       0.14300899      -3.39362151
B        2.48887000       2.23189000       2.44876000      -1.30373000       3.96631200      -0.94871100      -0.87382801       3.84584981      -1.47070035
B        3.55016000       3.21990000       0.17024000       2.13469500      -3.52588700       0.23974700       2.02708411      -3.31051446       0.17509669
B        3.12966000       3.07291000       4.24572000      -6.99085300       0.34377600      -0.16579100      -6.90359145       0.20473555      -0.19272710
B        2.38358000       5.95301000       6.34325000       2.25901800      -8.76611800      -6.31465800       2.01461920      -9.17056906      -6.32379703
B        4.46260000       2.62992000       4.23823000       7.08507900      -1.75449200       0.40993300       7.14024288      -1.83912004       0.26851313
B        7.51183000       3.59374000       3.85724000       1.49621300      -1.20378300       3.39561400       1.68529785      -0.87929834       3.04088754
Si       0.50050000       1.66927000       5.10425000      -1.02554400      -2.67263500       2.61432900      -0.68556200      -2.83247960       2.62161812
Si       0.41923000       4.50138000       8.15701000       0.82744200      -0.47721100      -2.57541600       1.00640330      -0.46425233      -2.84027578
Si       2.90131000       4.25049000       1.93860000       2.71957100       0.04497600      -0.88170100       2.80212465       0.03786241      -1.00332694
Si       3.74353000       6.85388000       5.19884000      -1.20766000       1.80214700      -2.20114300      -1.12162646       2.05183349      -2.08422446
Si       3.54209000       6.47938000       8.21357000      -0.45014500      -1.75854100       4.24377300      -0.54856728      -2.14223238       4.63879340
Si       4.55252000       1.74669000       6.40118000       0.28733400       0.20348600      -1.69136000       0.12598664       0.17539304      -1.46811791
Si       5.87020000       3.30923000       5.41310000       1.93974000       0.55942400      -1.14043100       1.54720518       0.84696788      -1.13313887
Si       6.68392000       0.09389000       2.07850000      -2.78148600      -1.30329400       2.70552900      -2.56902517      -1.14502838       2.63885839
Si       7.30980000       7.36953000       0.08595000       4.18267400      -0.22507900      -1.67891000       4.29261780      -0.51326317      -1.77217243
Si       8.41387000       7.50606000       2.97540000       5.08859000       1.78741200      -0.88875800       5.07279763       1.95979985      -0.92427467
54
Lattice="8.579999685 0.0 0.0 0.0 8.579999685 0.0 0.0 0.0 8.5799996" Properties=species:S:1:pos:R:3:REF_forces:R:3:MACE_forces:R:3 config_type=Fe34B10Si10 REF_energy=-359.84864784 MACE_energy=-338.122008687537 pbc="T T T"
Fe       0.39531000       2.37288000       0.87042000       3.27925500       2.43832800      -1.60261100       3.16206291       2.74370340      -1.62079493
Fe       0.75383000       1.65209000       3.11094000       1.30783500      -0.34615400      -0.09267000       1.27917930      -0.81850532       0.15134052
Fe       1.33201000       3.79282000       7.26231000      -2.40668100      -1.18131200       0.32245500      -2.39933040      -1.11546655       0.42576739
Fe       0.64436000       4.41396000       2.97573000       2.42004200      -2.26182600       0.38963900       2.38396806      -1.96565581       0.36560673
Fe       0.14751000       6.42079000       3.51005000      -3.07002100       1.32407200      -2.30638400      -2.99972731       1.17659536      -2.26188252