54
Lattice="8.579999685 0.0 0.0 0.0 8.579999685 0.0 0.0 0.0 8.5799996" Properties=species:S:1:pos:R:3:REF_forces:R:3:MACE_forces:R:3 config_type=Fe34B10Si10 REF_energy=-352.89092233 MACE_energy=-352.8595636649146 pbc="T T T"
Fe       1.46495000       0.71583000       1.12880000       3.73230100      -3.41607500      -3.76209700       3.76951469      -3.54628198      -3.74111454
Fe       0.56244000       2.07917000       1.96452000      -3.31290700       4.06628900       2.54508600      -3.39479389       4.14912205       2.43235946
Fe       0.86636000       2.12990000       5.00906000     -10.85567700      -2.87102900      12.20968700     -10.93403173      -2.94425509      12.15110920
Fe       0.24697000       2.61233000       7.83061000      -0.37811800      -2.03816900      -0.08744800      -0.30497310      -2.05180684       0.14929767
Fe       0.35437000       4.66395000       8.16447000      -1.30300600       1.62250000       0.84662400      -1.36505906       1.62468262       0.81256809
Fe       0.83543000       8.00840000       3.01492000       5.54921000      -2.55787300       0.52513800       5.52852375      -2.62979147       0.45195006
Fe       2.03952000       7.84431000       6.63062000      -4.28706100       1.82495200      -1.68802900      -4.03985054       2.01612397      -1.69067244
Fe       3.34318000       0.11090000       2.96052000      -0.46571400      -0.35056300       0.37864800      -0.45883264      -0.18951234       0.49927656
Fe       3.26317000       2.11539000       1.48699000      -3.47884800      -0.03222100       0.61542300      -3.32658238      -0.28984670       0.23526403
Fe       4.14313000       2.75755000       3.31065000      -0.71378000      -2.73118300       1.93004800      -0.66105245      -2.50238408       1.93191435
Fe       2.55051000       2.67374000       7.19710000      -2.55215900      -0.93589000       1.77261600      -2.30962373      -1.03675460       1.71499368
Fe       3.61327000       2.86500000       5.46497000       1.55763200       0.20514300      -0.56676300       1.47294210       0.31554360      -0.26799580
Fe       2.62400000       4.72550000       1.39174000      -1.08585200      -1.19598700       0.59645400      -1.37721301      -0.90005865       0.73923796
Fe       2.20317000       5.21693000       3.87451000      -3.92870900      -4.38103900      -4.92199500      -3.90485888      -4.41277936      -5.07012824
Fe       3.93082000       4.37819000       8.08226000       1.07616800       0.44807800      -0.99700400       1.08179358       0.26806975      -1.09722558
Fe       2.44961000       7.01753000       1.08943000       0.32119000      -1.55635000       3.27006500       0.47199369      -1.64948038       3.31249865
Fe       3.02500000       6.15780000       5.08193000      -1.08486800       1.64126100       3.95415400      -0.46015187       1.62758962       3.97576211
Fe       5.77712000       0.44616000       0.16142000      -2.43333700       0.07175000       4.13474700      -2.39253022       0.42858271       4.18641386
Fe       5.66964000       0.14892000       2.95259000      -3.67617900       1.90971100       0.12919700      -3.69859869       1.66413878       0.28236275
Fe       5.39484000       2.66317000       1.55162000       4.08183700      -3.39937100       3.88213200       3.91827399      -3.77170325       4.08294831
Fe       5.91309000       3.40423000       8.31953000       8.90196200       5.48305700      -2.72562400       8.70865483       5.52952924      -2.78633263
Fe       4.96126000       4.63305000       3.41410000      -3.60269200      -2.00302700       2.25051900      -3.83918914      -2.23385564       2.38576369
Fe       5.11347000       6.81217000       1.78872000      -0.87770500       0.06714300      -1.61156800      -0.64555613       0.10579281      -1.60702777
Fe       5.00950000       6.45991000       8.24507000      -2.30619500      -0.19808200      -1.52355700      -2.24410030      -0.05302586      -1.62923242
Fe       4.64263000       7.71190000       5.75084000       2.50156800       4.23919200      -1.55456800       2.57507337       4.24295101      -1.69197608
Fe       7.32285000       0.33022000       5.03535000      -0.99210900      -0.59745100       4.73628300      -1.04396619      -0.38167561       4.73280938
Fe       6.75330000       1.32958000       7.05071000       0.53851300       2.01290400       0.36400700       0.45188936       1.87085894       0.35860014
Fe       6.82686000       2.53028000       3.66692000      -0.08907100      -0.12987400      -0.26318300       0.04673530      -0.20110573      -0.24916463
Fe       6.83617000       5.56618000       0.59386000       1.74434500       1.47371700      -3.32847200       1.82094793       1.89552572      -3.41284268
Fe       8.27091000       4.29855000       2.87718000       3.23308900       0.33980500       1.37352500       3.14061081       0.19530362       1.40770631
Fe       6.58774000       4.90718000       4.97515000      -1.87594500       0.58060600      -0.05143700      -2.08419407       0.50371508      -0.66625878
Fe       6.86773000       6.79187000       3.27473000       1.52763600      -2.76254700       0.67579100       1.45230845      -2.44420482       0.34121559
Fe       8.09083000       8.29691000       0.84396000      -4.18921500      -1.95965200       9.56442300      -4.33198344      -2.30906269       9.51511366
Fe       6.62133000       7.67903000       7.47205000      -3.65417600       1.51975600      -3.32990400      -3.94130783       1.33480330      -3.46517508
B        3.45077000       6.81738000       6.75435000       2.04131500      -2.79808300       3.80923700       1.87751212      -2.77300535       3.96362283
B        4.67436000       1.10514000       4.73414000       0.75036200       0.95391600      -0.52852700       0.83155445       0.87735060      -0.40071907
B        6.18153000       2.20088000       5.47737000      -4.49435700      -3.20609500      -2.27763700      -4.68429497      -3.14153005      -2.37350661
B        5.08133000       4.10197000       6.35983000       0.35152900       0.25548900      -0.65354500       0.55877072       0.36817145      -0.63079881
B        4.48663000       4.29393000       1.40792000      -0.27448100       1.04603100       0.21283300      -0.17980090       1.19642414       0.24741062
B        4.96286000       5.88068000       6.14703000       0.60492000      -1.85032800       0.29314600       0.54332699      -1.92059316       0.18090764
B        8.17242000       5.65216000       5.55863000       1.00443800       0.65677900      -0.69824300       0.98466301       0.80045181      -0.35277502
B        7.98743000       6.92663000       6.60530000       5.86774900       2.58695800      -4.05103700       5.80998515       2.38070764      -3.75989049
B        7.10769000       5.72812000       6.91109000      -2.33709700      -3.34606800       1.34633400      -2.14712362      -3.42307879       1.74043220
B        7.81665000       6.81498000       8.33858000       5.04350100      -2.41043400       0.97359300       5.14345134      -2.67830345       0.57509710
Si       0.06983000       0.14925000       7.74742000       4.12649000       2.60901100      -8.87608100       4.07367160       2.59596877      -8.70936713
Si       1.93337000       2.41223000       3.74634000      10.14534600       2.98113100     -12.18526000      10.20204813       3.07826009     -11.97893468
Si       0.75978000       6.02813000       1.69309000      -4.13401100      -0.74920300       1.02787300      -4.13313212      -0.82561684       0.97624809
Si       2.22023000       5.10313000       7.16329000      -1.58663400       1.19675500      -1.89967800      -1.64154630       1.14997756      -1.94208318
Si       3.27754000       8.17117000       8.35443000       4.04667900       4.58101600      -2.24829100       3.94000784       4.60231597      -2.41209584
Si       4.48145000       2.18337000       8.34202000      -5.72220500      -5.96162700      -4.99603400      -5.55092667      -5.97221815      -5.10897486
Si       6.36439000       4.54151000       2.12641000       2.28764700      -2.33178900       1.39384200       2.49014599      -2.10761247       1.35216581
Si       4.52267000       6.51460000       3.75633000       0.42177200       5.22743800       1.25328700       0.12398109       5.32455751       1.33183356
Si       7.68278000       0.22257000       3.11016000      -0.17295300       4.89916800      -3.86478000      -0.26994664       4.79729439      -3.95658419
Si       7.35363000       3.38410000       6.13231000       4.40786200       1.27045000       2.62604800       4.34684025       1.44573060       2.93399320
54
Lattice="8.579999685 0.0 0.0 0.0 8.579999685 0.0 0.0 0.0 8.5799996" Properties=species:S:1:pos:R:3:REF_forces:R:3:MACE_forces:R:3 config_type=Fe34B10Si10 REF_energy=-354.71875992 MACE_energy=-354.96833120484513 pbc="T T T"
Fe       0.43313000       1.19321000       2.96848000       1.47291300       2.99028000       0.61180900       1.50479893       2.96444163       0.32168612
Fe       0.91365000       1.12516000       8.09995000       2.76260400      -2.00335600       1.20968300       2.42100856      -2.05025313       1.08278864
Fe       1.17142000       2.67870000       5.23446000      -1.90323000       6.04651700       0.58026800      -1.75892161       6.09357865       0.43762213
Fe       0.60772000       3.85484000       0.87278000       2.66909500       4.89444800       4.53699300       2.51863847       4.94594445       4.16897639
Fe       1.41565000       3.44858000       3.01161000      -0.29549500       2.03729500      -0.74017400      -0.09666972       1.90505350      -0.69437966
Fe       0.04226000       2.91249000       8.09734000      -3.39897200      -2.84207300      -2.69442200      -2.79828563      -2.81879474      -2.30066184
Fe       1.33282000       7.09057000       5.22634000      -0.45239700      -1.35392500       0.92503500      -0.22290835      -1.51174073       0.96216461
Fe       2.06045000       7.92051000       0.98063000      -3.11321000      -0.30108300      -2.49280600      -3.08737243      -0.40696883      -2.35519371
Fe       2.03627000       8.24295000       3.50701000      -1.42216600       4.38122900       0.88517600      -1.44523472       4.13366181       0.66870181
Fe       0.01253000       8.02686000       7.00667000       2.58679700       0.98610200     -11.80201700       2.44756763       0.93250811     -11.85276334
Fe       3.00353000       0.57289000       6.13981000      -1.03922300       0.18357300       0.93137300      -0.82482876       0.10348298       1.00867511
Fe       3.69949000       2.65196000       7.51811000       2.76433000      -4.34399200      -3.80269000       2.59546769      -4.11058226      -3.69113857
Fe       2.94478000       6.44154000       3.03987000       7.21319500      -3.66655800      -1.17614100       7.04795044      -3.46447535      -1.01285598
Fe       2.94309000       5.75189000       6.64956000      -6.24071800      -0.74678300       3.86021800      -6.50478809      -0.65403874       3.83696130
Fe       3.71160000       8.39321000       1.86324000       2.24845700      -0.43546600       0.28887200       2.16308446      -0.17574296       0.67545884
Fe       4.07810000       8.43915000       4.32840000       2.88035800       1.28304800      -0.49181300       2.86060908       1.39069734      -0.77872117
Fe       5.57499000       0.73262000       6.31633000      -3.12774100      -1.68249800      -0.98058200      -2.84494025      -1.66687474      -0.87015114
Fe       4.70712000       1.94493000       1.65492000      -2.04675700       4.97917500      -3.67899600      -2.09816119       4.75065673      -3.53340112
Fe       4.73401000       4.18392000       1.24748000       0.71501700       1.80608500      -0.06999200       0.69357936       2.00998714      -0.11135253
Fe       4.56687000       4.22266000       4.39618000       0.73801700       3.32591500      -2.10569900       0.45631359       3.14170659      -2.18776333
Fe       4.51224000       4.61167000       7.05684000       2.53211900      -0.41024200       0.53825400       2.98139454      -0.74737536       0.49196106
Fe       6.32808000       6.81945000       4.24288000      -3.20445400      -0.33519400      -1.28892300      -2.81880310      -0.25881984      -1.13074778
Fe       6.22240000       7.17309000       0.16230000      -3.30904600      -2.75215800       1.90373500      -3.48032078      -3.07361625       2.09014257
Fe       4.54224000       7.44382000       7.03838000       0.17895600      -5.02037800      -8.74618400       0.27131040      -5.26464600      -8.96974583
Fe       4.73272000       8.55832000       8.35561000      -0.10588400       8.96287400       6.54083400      -0.17359084       9.51752482       6.24428001
Fe       7.67285000       2.82429000       2.17742000      -2.12886900      -0.76272600      -2.06587500      -2.06073989      -0.79927885      -1.99647494
Fe       6.74071000       1.77406000       4.33655000       0.47479500       0.50025500      -0.42349800       0.08239592       0.47172119      -0.49233290
Fe       7.16362000       1.61896000       6.68131000       5.11373900       1.83737400       0.70818800       4.79462635       1.70195699       0.63793849
Fe       6.73653000       4.13840000       7.84564000       0.19062300       0.32905600       3.59274800       0.09681852       0.51355513       3.64665952
Fe       6.61248000       5.35948000       2.44590000       0.96755600      -0.77403900      -0.47053600       0.84667928      -0.69232398      -0.51308914
Fe       8.39074000       4.95678000       4.82580000       0.50677700       3.21370700       1.22596300       0.57237613       3.10713251       1.10460178
Fe       6.62275000       6.29700000       6.29237000       0.91106900      -0.58785400       1.74696000       0.78672008      -0.46615008       1.61092637
Fe       8.00875000       8.14674000       2.12563000      -1.25903800      -1.94608200      -3.37077000      -0.88860147      -1.93747190      -3.40790142
Fe       7.96861000       8.10559000       4.08816000       1.24434400       0.03207600       4.40361200       0.70048360      -0.02684221       4.50234824
B        3.14587000       1.61638000       2.59818000      -3.96044800      -1.57388800      -2.24367700      -3.97967236      -1.48069633      -1.98573994
B        4.07212000       1.93087000       3.78701000       0.55534200       0.12762300      -3.25123200       0.43635624       0.08141774      -3.25723298
B        2.24412000       1.90783000       4.05913000      -1.80380000      -9.70850100      -5.48536600      -1.84818466      -9.89674330      -5.56944174
B        2.90130000       3.06657000       4.45062000       2.48509300       7.60479000      -1.50334300       2.90323865       7.34956483      -1.46073666
B        2.82587000       3.80138000       5.80651000       0.21675600       2.27927400       3.92227300       0.35215526       2.13352448       3.83339134
B        2.60929000       5.04297000       1.66311000       0.12617300      -0.77075900      -0.46531300      -0.08256327      -0.74551011      -0.35917556
B        2.47198000       4.95014000       4.32601000      -0.76752800      -1.31946700       0.35153300      -0.80534658      -1.22987787       0.29300133
B        2.73354000       7.81887000       7.66829000      -1.47869400      -0.15377200       0.00458000      -1.53814409      -0.18496463       0.17017899
B        5.68071000       2.28134000       7.79544000      -0.95924500       0.41857400       1.11780500      -0.91704697       0.34168770       1.06620122
B        7.77536000       3.70665000       3.76574000      -0.44877700      -1.48394500      -0.38974400      -0.54671429      -1.40404277      -0.02942417
Si       0.79518000       0.92195000       5.77957000      -1.66645900      -4.94136200      -1.10925300      -1.61963621      -5.12700992      -0.95138827
Si       0.88055000       4.20706000       6.73551000       1.15626000       3.58432200      -0.32349000       1.10243988       3.79249777      -0.18178878
Si       1.15025000       6.44729000       2.43826000      -7.77651300      -1.83655100      -1.54918700      -7.91933483      -1.75237605      -1.73148353
Si       2.82820000       3.29548000       0.50208000      -4.05499500       1.58525200       5.32597100      -4.14203964       1.49884466       5.27711986
Si       4.14031000       6.38272000       0.30005000      -2.16949800      -2.44928300       2.57761000      -2.19452895      -2.51613128       2.56845896
Si       3.68345000       6.43010000       5.01209000       3.98893100       0.98565200      -2.13453700       3.86086325       1.19203303      -2.06619171
Si       5.73751000       0.59059000       2.53265000       5.08228400      -4.90021500       2.23852200       5.19124225      -4.94028638       2.49791689
Si       4.51163000       2.47994000       5.36819000       2.60737700      -2.86786400       7.12589500       2.76919738      -2.65471427       6.97811975
Si       6.43436000       3.75222000       5.86206000       1.38008400       0.66155200      -3.64612400       1.58516674       0.80643731      -3.77867910
Si       8.06432000       7.52318000       8.55473000       2.36409700      -3.06603600      11.34847700       2.65489606      -2.82126827      11.09367552
18
Lattice="6.5 0.0 0.0 0.0 6.5 0.0 0.0 0.0 6.5" Properties=species:S:1:pos:R:3:REF_forces:R:3:MACE_forces:R:3 config_type=Fe12B3Si3 REF_energy=-113.87843945 MACE_energy=-113.2789469073031 pbc="T T T"
Fe       5.40234000       5.43492000       1.53729000      -1.39532100       2.04028400       0.71142300      -1.18996702       2.01088911       0.71396376
Fe       2.09750000       2.10361000       0.54730000       2.35673700      -0.33103000       1.27254800       2.52800294      -0.11203809       1.10536149
Fe       2.84360000       1.73250000       3.81271000       2.28004000      -1.18251600      -0.27344700       2.20363894      -1.05369325      -0.15529481
Fe       0.77541000       4.93717000       1.04317000       1.56096300      -3.83372900       1.76362000       1.46748980      -3.63993446       1.48479946
Fe       0.07665000       3.70431000       3.74351000      -0.75952900      -0.39175400      -2.23189700      -0.98560179      -0.40634245      -2.29624862
Fe       4.77171000       3.58949000       4.78220000      -1.99219600      -4.62409700       0.48420500      -1.80711545      -4.63111884       0.43300785
Fe       4.12430000       1.49867000       1.46476000       0.29771700      -2.38794700       0.28396300       0.31570774      -2.68120617       0.13792392
Fe       0.95387000       5.17746000       5.28728000      -0.57085000      -0.50160400      -1.80733600      -0.94821148      -0.69699191      -1.30887704
Fe       1.93602000       3.09888000       2.36598000      -0.08855100       0.43128300      -0.27209000      -0.12200197       0.61651236      -0.38873377
Fe       5.69037000       1.28357000       4.20026000      -0.40866000      -0.49067900       0.18976600      -0.64923851      -0.27188645       0.15679403
Fe       1.94321000       2.86141000       5.39871000      -0.55906500       0.73218900      -1.80086600      -0.63454919       0.84012569      -1.86475042
Fe       4.33122000       5.38124000       5.25469000      -0.73272900       4.56545400       1.52017900      -0.73297231       4.43616205       1.53044671
B        0.37598000       1.64060000       1.21420000      -3.21263000       2.85095800       0.76078000      -3.12085506       2.71472201       0.93486637
B        1.88110000       4.04794000       3.96741000       2.48956600       2.45119300      -0.32261600       2.68890680       2.28336809      -0.39723037
B        3.63878000       0.94242000       5.41981000      -0.01444500       0.67937600       0.95779200       0.15808356       0.80935433       1.04086608
Si       1.19380000       0.26963000       0.19686000       0.54051800       0.24528300      -1.93219100       0.68460495       0.02549198      -1.92382645
Si       4.57825000       3.47658000       1.16117000       0.15934200       1.26766700      -0.81102600       0.19652536       1.42183621      -0.71455094
Si       1.09558000       0.76720000       2.75124000       0.04909300      -1.52033200       1.50719200      -0.05244729      -1.66525022       1.51148273
54
Lattice="8.579999685 0.0 0.0 0.0 8.579999685 0.0 0.0 0.0 8.5799996" Properties=species:S:1:pos:R:3:REF_forces:R:3:MACE_forces:R:3 config_type=Fe34B10Si10 REF_energy=-356.0869274 MACE_energy=-356.42520413909415 pbc="T T T"
Fe       0.92877000       1.08311000       2.12831000      -0.53214900      -1.15432400       0.53007800      -0.69078467      -1.24713665       0.38765788
Fe       1.12794000       0.45096000       7.37327000      -2.86345100       2.18226700       1.45805300      -2.86092956       2.01894506       1.46178014
Fe       0.91289000       3.61082000       1.96264000      -1.66570100       0.50807500      -4.76654600      -1.67022225       0.25439049      -4.75574017
Fe       0.97242000       3.25012000       3.83975000      -0.85629000      -1.23507100      -0.91491200      -1.07181076      -1.16789908      -0.42561865
Fe       1.43574000       3.84332000       5.84621000      -1.94378300      -0.72872400       4.94145300      -2.07137951      -0.51587002       4.71450118
Fe       0.45897000       5.99881000       1.32384000       1.86679900       1.45939200      -0.33976700       1.63256552       1.57054458      -0.20658581
Fe       0.05714000       6.25044000       6.01250000       0.66851500      -0.88142700       1.67028200       0.74859526      -0.74367626       1.81376259
Fe       1.87526000       7.05991000       7.27744000      -5.90957000       6.81146600       5.95768600      -5.78047973       7.19119903       5.91429399
Fe       4.21220000       0.80536000       3.81626000       0.44958900      -1.97725700       0.54591300       0.57852220      -1.90782340       0.42841198
Fe       2.64196000       0.75311000       5.88605000       0.80305000      -0.92688600      -1.50973400       0.62277472      -1.09474815      -1.55790751
Fe       2.51735000       4.27963000       7.86001000      -0.17185400       2.88247300       0.00075600      -0.00387636       2.97623730       0.38381717
Fe       2.46175000       4.76211000       4.38544000       2.27245000       6.36429500      -0.60000700       2.26190432       6.39422910      -0.53760817
Fe       3.99132000       4.46692000       6.09268000      -0.21521200      -1.96607600      -0.25853400      -0.24335064      -2.12820042      -0.16107888
Fe       4.03283000       6.20484000       2.50717000       0.32509400      -1.83048700       1.07686200       0.45452926      -1.70065038       1.17558332
Fe       2.62183000       8.12097000       1.25125000      -5.45108600      -1.04608100      -0.88869000      -5.57110602      -1.01482533      -0.54836737
Fe       2.34208000       7.49949000       3.33705000      -1.45221900       0.10179900       1.96325000      -1.29804666       0.22758702       1.57998537
Fe       4.67554000       0.98699000       8.35162000       1.97529500       0.95938300       0.07305200       1.80704483       0.79162710       0.45349045
Fe       4.68615000       2.28426000       1.60336000       6.03713100       4.39249100       1.56082500       6.19463677       4.32562937       1.15926904
Fe       4.95897000       4.28949000       0.91503000       1.24258400       3.77490300      -1.07876200       0.63011827       3.40721083      -1.23305886
Fe       5.62605000       3.84953000       3.25301000      -4.56775200       3.43217100       2.09526400      -4.64889033       3.48317679       1.94924291
Fe       5.63153000       5.70233000       4.67966000       0.04558900       0.36352900      -0.74034800       0.11377027      -0.07986462      -0.61019248
Fe       5.00954000       6.14620000       6.89198000       4.51113600      -2.60361300       1.43664400       4.51406354      -2.43413576       1.35921061
Fe       5.34723000       7.32984000       0.56425000       3.41130600      -7.55812200      -7.44238600       3.31851290      -7.08326888      -7.31125581
Fe       4.57141000       8.20633000       1.67615000      -2.51651100       6.57056000       9.11650700      -2.59794725       6.22856945       8.74187126
Fe       5.67084000       7.83697000       6.02451000      -0.02983000       3.57151200       0.33120700      -0.08451695       3.74980451       0.40558489
Fe       7.65837000       1.05332000       0.64336000       1.95813700       2.93603900      -3.62028800       1.89417889       2.98222456      -3.49693982
Fe       7.23579000       1.49494000       3.62009000       0.88838800      -1.50203300       3.00240400       0.98167292      -1.60491155       3.03021661
Fe       6.96409000       1.59543000       6.70415000       0.40175100      -2.57633900      -0.54943900       0.53463998      -2.52983294      -0.51858819
Fe       6.97946000       3.05325000       2.27831000       3.01329100      -2.85779700      -7.80747400       2.51124518      -3.01241487      -7.20154110
Fe       7.05854000       3.62734000       7.13255000       0.94483300       2.42104600       2.56329500       1.06188659       2.44847975       2.50268110
Fe       7.47490000       4.49325000       0.92243000      -3.13561000       0.06366500       0.11142200      -2.92809364       0.42428368      -0.35986628
Fe       7.76499000       5.40883000       4.05655000       3.42051700      -2.49950500       1.10150300       3.48175336      -2.66499773       1.16594661
Fe       6.91686000       6.16423000       2.38917000      -4.34160700       0.52717700      -3.24358900      -4.28814047       0.64924052      -3.17405521
Fe       7.31773000       7.39473000       4.73130000      -1.41907300       3.06948200       1.38572900      -1.38604771       3.07505909       1.29554994
B        1.63947000       5.44017000       2.85377000      -1.37965300       1.67099600      -0.34434500      -1.42471342       1.76523774      -0.58050516
B        3.47444000       1.29905000       1.69513000      -6.04542900      -7.46227000      -1.52467000      -5.88555509      -7.27193401      -1.19718268
B        2.31673000       1.42955000       3.77944000      -1.85652800      -2.14982900       3.21956500      -1.78246745      -1.97226740       3.51649961
B        3.17088000       0.01260000       8.16689000      -2.14308300      -0.12737100      -3.63430700      -2.11426855       0.06386044      -3.57782607
B        2.48887000       2.23189000       2.44876000      -1.30373000       3.96631200      -0.94871100      -0.86828303       3.90816615      -1.24953302
B        3.55016000       3.21990000       0.17024000       2.13469500      -3.52588700       0.23974700       2.09253703      -3.42033867       0.15733228
B        3.12966000       3.07291000       4.24572000      -6.99085300       0.34377600      -0.16579100      -7.17127490       0.01137823      -0.35415635
B        2.38358000       5.95301000       6.34325000       2.25901800      -8.76611800      -6.31465800       2.25682196      -9.20010999      -6.50860661
B        4.46260000       2.62992000       4.23823000       7.08507900      -1.75449200       0.40993300       7.23869777      -1.69399267       0.46173929
B        7.51183000       3.59374000       3.85724000       1.49621300      -1.20378300       3.39561400       1.51155453      -1.11243577       3.33454185
Si       0.50050000       1.66927000       5.10425000      -1.02554400      -2.67263500       2.61432900      -0.87110094      -2.95371993       2.49425431
Si       0.41923000       4.50138000       8.15701000       0.82744200      -0.47721100      -2.57541600       1.08097584      -0.51341634      -2.81059706
Si       2.90131000       4.25049000       1.93860000       2.71957100       0.04497600      -0.88170100       2.95597264      -0.06549856      -1.14506487
Si       3.74353000       6.85388000       5.19884000      -1.20766000       1.80214700      -2.20114300      -1.10080525       1.92769766      -2.19700794
Si       3.54209000       6.47938000       8.21357000      -0.45014500      -1.75854100       4.24377300      -0.58314526      -1.99638935       4.43720345
Si       4.55252000       1.74669000       6.40118000       0.28733400       0.20348600      -1.69136000       0.28281404       0.18319734      -1.74282904
Si       5.87020000       3.30923000       5.41310000       1.93974000       0.55942400      -1.14043100       1.56084615       0.71848616      -1.18438781
Si       6.68392000       0.09389000       2.07850000      -2.78148600      -1.30329400       2.70552900      -2.46167428      -1.20486142       2.84518184
Si       7.30980000       7.36953000       0.08595000       4.18267400      -0.22507900      -1.67891000       4.12729460      -0.47573703      -1.67139444
Si       8.41387000       7.50606000       2.97540000       5.08859000       1.78741200      -0.88875800       5.00898137       2.03449526      -0.85211433
54
Lattice="8.579999685 0.0 0.0 0.0 8.579999685 0.0 0.0 0.0 8.5799996" Properties=species:S:1:pos:R:3:REF_forces:R:3:MACE_forces:R:3 config_type=Fe34B10Si10 REF_energy=-359.84864784 MACE_energy=-359.9285991401074 pbc="T T T"
Fe       0.39531000       2.37288000       0.87042000       3.27925500       2.43832800      -1.60261100       3.23184971       2.54906538      -1.72230127
Fe       0.75383000       1.65209000       3.11094000       1.30783500      -0.34615400      -0.09267000       1.25597150      -0.77686685       0.24207981
Fe       1.33201000       3.79282000       7.26231000      -2.40668100      -1.18131200       0.32245500      -2.55252999      -1.05587662       0.16315895
Fe       0.64436000       4.41396000       2.97573000       2.42004200      -2.26182600       0.38963900       2.47478447      -2.03488772       0.21685509
Fe       0.14751000       6.42079000       3.51005000      -3.07002100       1.32407200      -2.30638400      -3.10601526       1.38336737      -2.55459920