54
Lattice="8.579999685 0.0 0.0 0.0 8.579999685 0.0 0.0 0.0 8.5799996" Properties=species:S:1:pos:R:3:REF_forces:R:3:MACE_forces:R:3 config_type=Fe34B10Si10 REF_energy=-352.89092233 MACE_energy=-352.5140995480658 pbc="T T T"
Fe       1.46495000       0.71583000       1.12880000       3.73230100      -3.41607500      -3.76209700       3.68683940      -3.46391403      -3.54294533
Fe       0.56244000       2.07917000       1.96452000      -3.31290700       4.06628900       2.54508600      -3.23822125       3.94400278       2.31218958
Fe       0.86636000       2.12990000       5.00906000     -10.85567700      -2.87102900      12.20968700     -10.91892811      -2.96106034      12.22413470
Fe       0.24697000       2.61233000       7.83061000      -0.37811800      -2.03816900      -0.08744800      -0.41466386      -1.91771723       0.06894829
Fe       0.35437000       4.66395000       8.16447000      -1.30300600       1.62250000       0.84662400      -1.32841912       1.64396802       0.79802034
Fe       0.83543000       8.00840000       3.01492000       5.54921000      -2.55787300       0.52513800       5.71263942      -2.53164278       0.40424057
Fe       2.03952000       7.84431000       6.63062000      -4.28706100       1.82495200      -1.68802900      -4.08132802       1.98844414      -1.64863439
Fe       3.34318000       0.11090000       2.96052000      -0.46571400      -0.35056300       0.37864800      -0.50518310      -0.22342793       0.47621116
Fe       3.26317000       2.11539000       1.48699000      -3.47884800      -0.03222100       0.61542300      -3.40764323      -0.29714290       0.17821556
Fe       4.14313000       2.75755000       3.31065000      -0.71378000      -2.73118300       1.93004800      -0.63911021      -2.44275761       1.89841752
Fe       2.55051000       2.67374000       7.19710000      -2.55215900      -0.93589000       1.77261600      -2.31655884      -1.13443208       1.73120861
Fe       3.61327000       2.86500000       5.46497000       1.55763200       0.20514300      -0.56676300       1.48382508       0.28376975      -0.32223936
Fe       2.62400000       4.72550000       1.39174000      -1.08585200      -1.19598700       0.59645400      -1.36257422      -0.98602666       0.70963336
Fe       2.20317000       5.21693000       3.87451000      -3.92870900      -4.38103900      -4.92199500      -3.84646472      -4.34456368      -4.95594297
Fe       3.93082000       4.37819000       8.08226000       1.07616800       0.44807800      -0.99700400       1.00116498       0.28433487      -0.95775601
Fe       2.44961000       7.01753000       1.08943000       0.32119000      -1.55635000       3.27006500       0.41910758      -1.60788897       3.28616302
Fe       3.02500000       6.15780000       5.08193000      -1.08486800       1.64126100       3.95415400      -0.61398833       1.62988208       4.02671944
Fe       5.77712000       0.44616000       0.16142000      -2.43333700       0.07175000       4.13474700      -2.46081868       0.41909517       4.21789640
Fe       5.66964000       0.14892000       2.95259000      -3.67617900       1.90971100       0.12919700      -3.69088818       1.64743517       0.33431489
Fe       5.39484000       2.66317000       1.55162000       4.08183700      -3.39937100       3.88213200       4.07179102      -3.66674207       4.02834805
Fe       5.91309000       3.40423000       8.31953000       8.90196200       5.48305700      -2.72562400       8.69418140       5.43207075      -2.66130127
Fe       4.96126000       4.63305000       3.41410000      -3.60269200      -2.00302700       2.25051900      -3.74507603      -2.21967779       2.40694501
Fe       5.11347000       6.81217000       1.78872000      -0.87770500       0.06714300      -1.61156800      -0.70533300       0.06331392      -1.58248210
Fe       5.00950000       6.45991000       8.24507000      -2.30619500      -0.19808200      -1.52355700      -2.31796525       0.01483527      -1.69873081
Fe       4.64263000       7.71190000       5.75084000       2.50156800       4.23919200      -1.55456800       2.58207645       4.31884137      -1.60909848
Fe       7.32285000       0.33022000       5.03535000      -0.99210900      -0.59745100       4.73628300      -1.02029160      -0.36412505       4.79882897
Fe       6.75330000       1.32958000       7.05071000       0.53851300       2.01290400       0.36400700       0.56206204       1.83855417       0.31847866
Fe       6.82686000       2.53028000       3.66692000      -0.08907100      -0.12987400      -0.26318300      -0.03772066      -0.19797698      -0.26033081
Fe       6.83617000       5.56618000       0.59386000       1.74434500       1.47371700      -3.32847200       1.83078416       1.64853073      -3.47066800
Fe       8.27091000       4.29855000       2.87718000       3.23308900       0.33980500       1.37352500       3.20204641       0.20969002       1.30918896
Fe       6.58774000       4.90718000       4.97515000      -1.87594500       0.58060600      -0.05143700      -2.13650292       0.62002206      -0.33848707
Fe       6.86773000       6.79187000       3.27473000       1.52763600      -2.76254700       0.67579100       1.38874388      -2.44475869       0.37890255
Fe       8.09083000       8.29691000       0.84396000      -4.18921500      -1.95965200       9.56442300      -4.17472526      -2.30521802       9.69058631
Fe       6.62133000       7.67903000       7.47205000      -3.65417600       1.51975600      -3.32990400      -3.94149574       1.24806313      -3.50745321
B        3.45077000       6.81738000       6.75435000       2.04131500      -2.79808300       3.80923700       1.93051237      -2.75359895       3.97938145
B        4.67436000       1.10514000       4.73414000       0.75036200       0.95391600      -0.52852700       0.82539079       0.88808019      -0.45724447
B        6.18153000       2.20088000       5.47737000      -4.49435700      -3.20609500      -2.27763700      -4.72684065      -3.15790331      -2.49642215
B        5.08133000       4.10197000       6.35983000       0.35152900       0.25548900      -0.65354500       0.57022529       0.33901855      -0.60608436
B        4.48663000       4.29393000       1.40792000      -0.27448100       1.04603100       0.21283300      -0.26302187       1.22865324       0.16187777
B        4.96286000       5.88068000       6.14703000       0.60492000      -1.85032800       0.29314600       0.59473432      -1.93737211       0.13612689
B        8.17242000       5.65216000       5.55863000       1.00443800       0.65677900      -0.69824300       1.04182200       0.70993614      -0.31011614
B        7.98743000       6.92663000       6.60530000       5.86774900       2.58695800      -4.05103700       5.85437947       2.44041421      -3.71157966
B        7.10769000       5.72812000       6.91109000      -2.33709700      -3.34606800       1.34633400      -2.26383633      -3.47367179       1.33507741
B        7.81665000       6.81498000       8.33858000       5.04350100      -2.41043400       0.97359300       5.18092096      -2.43153498       0.70181248
Si       0.06983000       0.14925000       7.74742000       4.12649000       2.60901100      -8.87608100       3.96161846       2.63425128      -8.88034388
Si       1.93337000       2.41223000       3.74634000      10.14534600       2.98113100     -12.18526000      10.24865214       3.10152445     -12.02815325
Si       0.75978000       6.02813000       1.69309000      -4.13401100      -0.74920300       1.02787300      -4.11447600      -0.88049791       1.01706976
Si       2.22023000       5.10313000       7.16329000      -1.58663400       1.19675500      -1.89967800      -1.79081334       1.13770908      -1.93458115
Si       3.27754000       8.17117000       8.35443000       4.04667900       4.58101600      -2.24829100       3.90492735       4.53354002      -2.46159763
Si       4.48145000       2.18337000       8.34202000      -5.72220500      -5.96162700      -4.99603400      -5.50326977      -5.82198905      -5.17241815
Si       6.36439000       4.54151000       2.12641000       2.28764700      -2.33178900       1.39384200       2.58245880      -2.24140861       1.29163652
Si       4.52267000       6.51460000       3.75633000       0.42177200       5.22743800       1.25328700       0.13762687       5.37520997       1.37542939
Si       7.68278000       0.22257000       3.11016000      -0.17295300       4.89916800      -3.86478000      -0.28522955       4.79281558      -3.98005366
Si       7.35363000       3.38410000       6.13231000       4.40786200       1.27045000       2.62604800       4.38285721       1.39104341       2.99866072
54
Lattice="8.579999685 0.0 0.0 0.0 8.579999685 0.0 0.0 0.0 8.5799996" Properties=species:S:1:pos:R:3:REF_forces:R:3:MACE_forces:R:3 config_type=Fe34B10Si10 REF_energy=-354.71875992 MACE_energy=-354.62302335103004 pbc="T T T"
Fe       0.43313000       1.19321000       2.96848000       1.47291300       2.99028000       0.61180900       1.63506594       2.99214438       0.34390810
Fe       0.91365000       1.12516000       8.09995000       2.76260400      -2.00335600       1.20968300       2.52945729      -2.09906149       1.09682216
Fe       1.17142000       2.67870000       5.23446000      -1.90323000       6.04651700       0.58026800      -1.68423167       6.31054609       0.62470454
Fe       0.60772000       3.85484000       0.87278000       2.66909500       4.89444800       4.53699300       2.65142230       5.12431234       4.20570870
Fe       1.41565000       3.44858000       3.01161000      -0.29549500       2.03729500      -0.74017400      -0.26343160       1.92282922      -0.69347839
Fe       0.04226000       2.91249000       8.09734000      -3.39897200      -2.84207300      -2.69442200      -3.02763998      -2.76263954      -2.42022922
Fe       1.33282000       7.09057000       5.22634000      -0.45239700      -1.35392500       0.92503500      -0.25470043      -1.50369420       0.83094262
Fe       2.06045000       7.92051000       0.98063000      -3.11321000      -0.30108300      -2.49280600      -3.24284866      -0.51636154      -2.33351215
Fe       2.03627000       8.24295000       3.50701000      -1.42216600       4.38122900       0.88517600      -1.55734507       4.19875444       0.56467660
Fe       0.01253000       8.02686000       7.00667000       2.58679700       0.98610200     -11.80201700       2.50908743       0.82365791     -11.90580638
Fe       3.00353000       0.57289000       6.13981000      -1.03922300       0.18357300       0.93137300      -0.71994441      -0.01496167       1.09374036
Fe       3.69949000       2.65196000       7.51811000       2.76433000      -4.34399200      -3.80269000       2.57508545      -4.16769766      -3.64959591
Fe       2.94478000       6.44154000       3.03987000       7.21319500      -3.66655800      -1.17614100       7.15373438      -3.41664131      -0.97332599
Fe       2.94309000       5.75189000       6.64956000      -6.24071800      -0.74678300       3.86021800      -6.55205162      -0.73375448       3.93023836
Fe       3.71160000       8.39321000       1.86324000       2.24845700      -0.43546600       0.28887200       2.39137942      -0.25880673       0.53259880
Fe       4.07810000       8.43915000       4.32840000       2.88035800       1.28304800      -0.49181300       2.93059616       1.45805124      -0.79602623
Fe       5.57499000       0.73262000       6.31633000      -3.12774100      -1.68249800      -0.98058200      -2.89290166      -1.68725579      -1.02013278
Fe       4.70712000       1.94493000       1.65492000      -2.04675700       4.97917500      -3.67899600      -2.11713080       4.85961903      -3.42400434
Fe       4.73401000       4.18392000       1.24748000       0.71501700       1.80608500      -0.06999200       0.68485383       1.98673365      -0.13506045
Fe       4.56687000       4.22266000       4.39618000       0.73801700       3.32591500      -2.10569900       0.55473982       3.45515074      -2.28829775
Fe       4.51224000       4.61167000       7.05684000       2.53211900      -0.41024200       0.53825400       2.98050793      -0.68724878       0.62431110
Fe       6.32808000       6.81945000       4.24288000      -3.20445400      -0.33519400      -1.28892300      -2.84103112      -0.26601915      -1.07839309
Fe       6.22240000       7.17309000       0.16230000      -3.30904600      -2.75215800       1.90373500      -3.51416571      -3.00447987       1.97630674
Fe       4.54224000       7.44382000       7.03838000       0.17895600      -5.02037800      -8.74618400       0.15164234      -5.28741474      -8.78604716
Fe       4.73272000       8.55832000       8.35561000      -0.10588400       8.96287400       6.54083400      -0.28013640       9.35661898       6.28431446
Fe       7.67285000       2.82429000       2.17742000      -2.12886900      -0.76272600      -2.06587500      -2.11989353      -0.71826436      -1.91384364
Fe       6.74071000       1.77406000       4.33655000       0.47479500       0.50025500      -0.42349800       0.12939730       0.51268903      -0.54309408
Fe       7.16362000       1.61896000       6.68131000       5.11373900       1.83737400       0.70818800       4.86071849       1.62680999       0.63361853
Fe       6.73653000       4.13840000       7.84564000       0.19062300       0.32905600       3.59274800       0.34901105       0.46283513       3.68080832
Fe       6.61248000       5.35948000       2.44590000       0.96755600      -0.77403900      -0.47053600       0.89261110      -0.75605317      -0.41331809
Fe       8.39074000       4.95678000       4.82580000       0.50677700       3.21370700       1.22596300       0.56696685       3.16765120       1.08146256
Fe       6.62275000       6.29700000       6.29237000       0.91106900      -0.58785400       1.74696000       0.85859281      -0.47614056       1.52959352
Fe       8.00875000       8.14674000       2.12563000      -1.25903800      -1.94608200      -3.37077000      -0.86802317      -1.95928975      -3.54539112
Fe       7.96861000       8.10559000       4.08816000       1.24434400       0.03207600       4.40361200       0.64917298      -0.02639049       4.62866073
B        3.14587000       1.61638000       2.59818000      -3.96044800      -1.57388800      -2.24367700      -4.12363457      -1.54262002      -2.20086115
B        4.07212000       1.93087000       3.78701000       0.55534200       0.12762300      -3.25123200       0.38096124       0.02320484      -3.34202328
B        2.24412000       1.90783000       4.05913000      -1.80380000      -9.70850100      -5.48536600      -1.86843057      -9.94750763      -5.62987117
B        2.90130000       3.06657000       4.45062000       2.48509300       7.60479000      -1.50334300       2.79651761       7.20241072      -1.42254034
B        2.82587000       3.80138000       5.80651000       0.21675600       2.27927400       3.92227300       0.26635868       2.14098558       3.93766746
B        2.60929000       5.04297000       1.66311000       0.12617300      -0.77075900      -0.46531300      -0.02806147      -0.97273577      -0.48999613
B        2.47198000       4.95014000       4.32601000      -0.76752800      -1.31946700       0.35153300      -0.88322463      -1.20153876       0.39319473
B        2.73354000       7.81887000       7.66829000      -1.47869400      -0.15377200       0.00458000      -1.42652110      -0.13341220       0.10282611
B        5.68071000       2.28134000       7.79544000      -0.95924500       0.41857400       1.11780500      -1.04413835       0.37164868       1.10463840
B        7.77536000       3.70665000       3.76574000      -0.44877700      -1.48394500      -0.38974400      -0.48327085      -1.41208024      -0.19637174
Si       0.79518000       0.92195000       5.77957000      -1.66645900      -4.94136200      -1.10925300      -1.65306551      -5.05941303      -0.91992710
Si       0.88055000       4.20706000       6.73551000       1.15626000       3.58432200      -0.32349000       1.16025890       3.68978171      -0.30157006
Si       1.15025000       6.44729000       2.43826000      -7.77651300      -1.83655100      -1.54918700      -7.84165607      -1.69557375      -1.76659721
Si       2.82820000       3.29548000       0.50208000      -4.05499500       1.58525200       5.32597100      -4.13886012       1.41178977       5.23821195
Si       4.14031000       6.38272000       0.30005000      -2.16949800      -2.44928300       2.57761000      -2.30790335      -2.34069148       2.44446389
Si       3.68345000       6.43010000       5.01209000       3.98893100       0.98565200      -2.13453700       3.92314352       1.20569794      -2.06604928
Si       5.73751000       0.59059000       2.53265000       5.08228400      -4.90021500       2.23852200       5.18660940      -4.97794491       2.51576296
Si       4.51163000       2.47994000       5.36819000       2.60737700      -2.86786400       7.12589500       2.76233686      -2.59185332       7.31205880
Si       6.43436000       3.75222000       5.86206000       1.38008400       0.66155200      -3.64612400       1.49816452       0.66269411      -3.77953875
Si       8.06432000       7.52318000       8.55473000       2.36409700      -3.06603600      11.34847700       2.70584881      -2.74907032      11.32366250
18
Lattice="6.5 0.0 0.0 0.0 6.5 0.0 0.0 0.0 6.5" Properties=species:S:1:pos:R:3:REF_forces:R:3:MACE_forces:R:3 config_type=Fe12B3Si3 REF_energy=-113.87843945 MACE_energy=-112.30998388178949 pbc="T T T"
Fe       5.40234000       5.43492000       1.53729000      -1.39532100       2.04028400       0.71142300      -1.20020040       2.05283678       0.79808070
Fe       2.09750000       2.10361000       0.54730000       2.35673700      -0.33103000       1.27254800       2.65851067      -0.22817299       1.43166918
Fe       2.84360000       1.73250000       3.81271000       2.28004000      -1.18251600      -0.27344700       2.24877588      -1.07416283      -0.35970187
Fe       0.77541000       4.93717000       1.04317000       1.56096300      -3.83372900       1.76362000       1.53648210      -3.66301219       1.57040589
Fe       0.07665000       3.70431000       3.74351000      -0.75952900      -0.39175400      -2.23189700      -0.92481353      -0.48220483      -2.33704565
Fe       4.77171000       3.58949000       4.78220000      -1.99219600      -4.62409700       0.48420500      -1.77806655      -4.54439488       0.42183326
Fe       4.12430000       1.49867000       1.46476000       0.29771700      -2.38794700       0.28396300       0.33372407      -2.69632392       0.16430106
Fe       0.95387000       5.17746000       5.28728000      -0.57085000      -0.50160400      -1.80733600      -0.83990355      -0.68657948      -1.35920232
Fe       1.93602000       3.09888000       2.36598000      -0.08855100       0.43128300      -0.27209000      -0.22954711       0.55114523      -0.40062675
Fe       5.69037000       1.28357000       4.20026000      -0.40866000      -0.49067900       0.18976600      -0.73946030      -0.36200449       0.25201746
Fe       1.94321000       2.86141000       5.39871000      -0.55906500       0.73218900      -1.80086600      -0.64297118       1.03790269      -2.15509687
Fe       4.33122000       5.38124000       5.25469000      -0.73272900       4.56545400       1.52017900      -0.64416954       4.47313724       1.57829650
B        0.37598000       1.64060000       1.21420000      -3.21263000       2.85095800       0.76078000      -3.15306037       2.78788283       0.98639507
B        1.88110000       4.04794000       3.96741000       2.48956600       2.45119300      -0.32261600       2.54457371       2.32251691      -0.31169913
B        3.63878000       0.94242000       5.41981000      -0.01444500       0.67937600       0.95779200       0.06920700       0.77426398       1.07361713
Si       1.19380000       0.26963000       0.19686000       0.54051800       0.24528300      -1.93219100       0.62610890       0.01608209      -1.89485120
Si       4.57825000       3.47658000       1.16117000       0.15934200       1.26766700      -0.81102600       0.22106192       1.37158259      -0.74992198
Si       1.09558000       0.76720000       2.75124000       0.04909300      -1.52033200       1.50719200      -0.08625174      -1.65049476       1.29152951
54
Lattice="8.579999685 0.0 0.0 0.0 8.579999685 0.0 0.0 0.0 8.5799996" Properties=species:S:1:pos:R:3:REF_forces:R:3:MACE_forces:R:3 config_type=Fe34B10Si10 REF_energy=-356.0869274 MACE_energy=-356.3273493151278 pbc="T T T"
Fe       0.92877000       1.08311000       2.12831000      -0.53214900      -1.15432400       0.53007800      -0.63753943      -1.17677644       0.44758429
Fe       1.12794000       0.45096000       7.37327000      -2.86345100       2.18226700       1.45805300      -2.73276584       2.02911418       1.43099663
Fe       0.91289000       3.61082000       1.96264000      -1.66570100       0.50807500      -4.76654600      -1.58106157       0.18361552      -4.54975479
Fe       0.97242000       3.25012000       3.83975000      -0.85629000      -1.23507100      -0.91491200      -1.11935639      -1.09396014      -0.57423876
Fe       1.43574000       3.84332000       5.84621000      -1.94378300      -0.72872400       4.94145300      -2.05057854      -0.55079405       4.79054118
Fe       0.45897000       5.99881000       1.32384000       1.86679900       1.45939200      -0.33976700       1.69184785       1.46458405      -0.15389840
Fe       0.05714000       6.25044000       6.01250000       0.66851500      -0.88142700       1.67028200       0.62232648      -0.75022315       1.69418603
Fe       1.87526000       7.05991000       7.27744000      -5.90957000       6.81146600       5.95768600      -5.65678912       7.02735536       5.78312882
Fe       4.21220000       0.80536000       3.81626000       0.44958900      -1.97725700       0.54591300       0.52625375      -1.82030184       0.45792017
Fe       2.64196000       0.75311000       5.88605000       0.80305000      -0.92688600      -1.50973400       0.51342203      -1.07618826      -1.49084005
Fe       2.51735000       4.27963000       7.86001000      -0.17185400       2.88247300       0.00075600      -0.18956671       3.04375651       0.02785016
Fe       2.46175000       4.76211000       4.38544000       2.27245000       6.36429500      -0.60000700       2.33555514       6.38557255      -0.50997442
Fe       3.99132000       4.46692000       6.09268000      -0.21521200      -1.96607600      -0.25853400      -0.30986737      -2.17864108      -0.16755433
Fe       4.03283000       6.20484000       2.50717000       0.32509400      -1.83048700       1.07686200       0.40016221      -1.76879609       1.08823213
Fe       2.62183000       8.12097000       1.25125000      -5.45108600      -1.04608100      -0.88869000      -5.55869770      -1.11008894      -0.67206199
Fe       2.34208000       7.49949000       3.33705000      -1.45221900       0.10179900       1.96325000      -1.30238466       0.10751791       1.61693291
Fe       4.67554000       0.98699000       8.35162000       1.97529500       0.95938300       0.07305200       1.73702894       0.88071158       0.32198825
Fe       4.68615000       2.28426000       1.60336000       6.03713100       4.39249100       1.56082500       6.19656656       4.39171332       1.11063036
Fe       4.95897000       4.28949000       0.91503000       1.24258400       3.77490300      -1.07876200       0.79400401       3.56578723      -1.17439591
Fe       5.62605000       3.84953000       3.25301000      -4.56775200       3.43217100       2.09526400      -4.64146131       3.44107100       1.88885636
Fe       5.63153000       5.70233000       4.67966000       0.04558900       0.36352900      -0.74034800       0.10704988      -0.02814064      -0.58077200
Fe       5.00954000       6.14620000       6.89198000       4.51113600      -2.60361300       1.43664400       4.55607620      -2.52331299       1.30161117
Fe       5.34723000       7.32984000       0.56425000       3.41130600      -7.55812200      -7.44238600       3.27395967      -7.10643546      -7.10992047
Fe       4.57141000       8.20633000       1.67615000      -2.51651100       6.57056000       9.11650700      -2.41686071       6.12157853       8.80655704
Fe       5.67084000       7.83697000       6.02451000      -0.02983000       3.57151200       0.33120700      -0.06234159       3.67056292       0.43737798
Fe       7.65837000       1.05332000       0.64336000       1.95813700       2.93603900      -3.62028800       1.82967592       2.81393256      -3.44295856
Fe       7.23579000       1.49494000       3.62009000       0.88838800      -1.50203300       3.00240400       1.06685813      -1.48011887       2.99305413
Fe       6.96409000       1.59543000       6.70415000       0.40175100      -2.57633900      -0.54943900       0.44492090      -2.42407494      -0.48746943
Fe       6.97946000       3.05325000       2.27831000       3.01329100      -2.85779700      -7.80747400       2.61077197      -2.90061032      -7.36541452
Fe       7.05854000       3.62734000       7.13255000       0.94483300       2.42104600       2.56329500       0.99713684       2.32238641       2.37063392
Fe       7.47490000       4.49325000       0.92243000      -3.13561000       0.06366500       0.11142200      -2.81757652       0.41340913      -0.15934475
Fe       7.76499000       5.40883000       4.05655000       3.42051700      -2.49950500       1.10150300       3.57219218      -2.65275926       1.13539401
Fe       6.91686000       6.16423000       2.38917000      -4.34160700       0.52717700      -3.24358900      -4.34842394       0.83486798      -3.24235751
Fe       7.31773000       7.39473000       4.73130000      -1.41907300       3.06948200       1.38572900      -1.44147591       2.98372039       1.33274303
B        1.63947000       5.44017000       2.85377000      -1.37965300       1.67099600      -0.34434500      -1.45571792       1.73862695      -0.57835069
B        3.47444000       1.29905000       1.69513000      -6.04542900      -7.46227000      -1.52467000      -6.11249846      -6.98770064      -1.28731354
B        2.31673000       1.42955000       3.77944000      -1.85652800      -2.14982900       3.21956500      -1.82599840      -1.94965825       3.34033874
B        3.17088000       0.01260000       8.16689000      -2.14308300      -0.12737100      -3.63430700      -2.11133064       0.11732245      -3.50081338
B        2.48887000       2.23189000       2.44876000      -1.30373000       3.96631200      -0.94871100      -0.89735774       3.73765700      -1.23379563
B        3.55016000       3.21990000       0.17024000       2.13469500      -3.52588700       0.23974700       2.14169585      -3.57624029       0.38624345
B        3.12966000       3.07291000       4.24572000      -6.99085300       0.34377600      -0.16579100      -6.90975482       0.08307083      -0.19513557
B        2.38358000       5.95301000       6.34325000       2.25901800      -8.76611800      -6.31465800       2.11868153      -9.06741664      -6.40123457
B        4.46260000       2.62992000       4.23823000       7.08507900      -1.75449200       0.40993300       6.99838655      -1.84842863       0.37861553
B        7.51183000       3.59374000       3.85724000       1.49621300      -1.20378300       3.39561400       1.49880828      -1.03663010       3.22391308
Si       0.50050000       1.66927000       5.10425000      -1.02554400      -2.67263500       2.61432900      -0.78046064      -2.99023946       2.58393317
Si       0.41923000       4.50138000       8.15701000       0.82744200      -0.47721100      -2.57541600       1.09621518      -0.44809945      -2.76211611
Si       2.90131000       4.25049000       1.93860000       2.71957100       0.04497600      -0.88170100       2.71156494       0.00259351      -1.03414116
Si       3.74353000       6.85388000       5.19884000      -1.20766000       1.80214700      -2.20114300      -1.06865009       1.92123030      -2.08767709
Si       3.54209000       6.47938000       8.21357000      -0.45014500      -1.75854100       4.24377300      -0.58976248      -2.01331153       4.41748154
Si       4.55252000       1.74669000       6.40118000       0.28733400       0.20348600      -1.69136000       0.27145303       0.20711264      -1.64341948
Si       5.87020000       3.30923000       5.41310000       1.93974000       0.55942400      -1.14043100       1.67843952       0.82803160      -1.18784526
Si       6.68392000       0.09389000       2.07850000      -2.78148600      -1.30329400       2.70552900      -2.57471528      -1.24899273       2.84685045
Si       7.30980000       7.36953000       0.08595000       4.18267400      -0.22507900      -1.67891000       4.37494343      -0.39019499      -1.74786464
Si       8.41387000       7.50606000       2.97540000       5.08859000       1.78741200      -0.88875800       5.02699680       1.88123274      -0.87293151
54
Lattice="8.579999685 0.0 0.0 0.0 8.579999685 0.0 0.0 0.0 8.5799996" Properties=species:S:1:pos:R:3:REF_forces:R:3:MACE_forces:R:3 config_type=Fe34B10Si10 REF_energy=-359.84864784 MACE_energy=-359.7151233340916 pbc="T T T"
Fe       0.39531000       2.37288000       0.87042000       3.27925500       2.43832800      -1.60261100       3.17388121       2.65404771      -1.70932891
Fe       0.75383000       1.65209000       3.11094000       1.30783500      -0.34615400      -0.09267000       1.34915075      -0.75921734       0.03448548
Fe       1.33201000       3.79282000       7.26231000      -2.40668100      -1.18131200       0.32245500      -2.51902809      -1.17390775       0.16864590
Fe       0.64436000       4.41396000       2.97573000       2.42004200      -2.26182600       0.38963900       2.46998348      -2.07399242       0.21440583
Fe       0.14751000       6.42079000       3.51005000      -3.07002100       1.32407200      -2.30638400      -3.15864376       1.35085203      -2.49460906