54
Lattice="8.579999685 0.0 0.0 0.0 8.579999685 0.0 0.0 0.0 8.5799996" Properties=species:S:1:pos:R:3:REF_forces:R:3:MACE_forces:R:3 config_type=Fe34B10Si10 REF_energy=-352.89092233 MACE_energy=-353.1786313013634 pbc="T T T"
Fe       1.46495000       0.71583000       1.12880000       3.73230100      -3.41607500      -3.76209700       3.59829226      -3.42101171      -3.45206399
Fe       0.56244000       2.07917000       1.96452000      -3.31290700       4.06628900       2.54508600      -3.33809516       4.04740684       2.33062615
Fe       0.86636000       2.12990000       5.00906000     -10.85567700      -2.87102900      12.20968700     -10.89917373      -2.94007482      12.21255661
Fe       0.24697000       2.61233000       7.83061000      -0.37811800      -2.03816900      -0.08744800      -0.37102636      -2.02540849       0.06928576
Fe       0.35437000       4.66395000       8.16447000      -1.30300600       1.62250000       0.84662400      -1.35911194       1.77360552       0.76076433
Fe       0.83543000       8.00840000       3.01492000       5.54921000      -2.55787300       0.52513800       5.63819684      -2.62663128       0.47565075
Fe       2.03952000       7.84431000       6.63062000      -4.28706100       1.82495200      -1.68802900      -4.10570296       2.01469682      -1.76097336
Fe       3.34318000       0.11090000       2.96052000      -0.46571400      -0.35056300       0.37864800      -0.49551945      -0.16723615       0.45710897
Fe       3.26317000       2.11539000       1.48699000      -3.47884800      -0.03222100       0.61542300      -3.31406388      -0.24085861       0.26619299
Fe       4.14313000       2.75755000       3.31065000      -0.71378000      -2.73118300       1.93004800      -0.67262314      -2.44679071       1.87358970
Fe       2.55051000       2.67374000       7.19710000      -2.55215900      -0.93589000       1.77261600      -2.21217552      -1.01988698       1.67750405
Fe       3.61327000       2.86500000       5.46497000       1.55763200       0.20514300      -0.56676300       1.44927765       0.27759023      -0.28182171
Fe       2.62400000       4.72550000       1.39174000      -1.08585200      -1.19598700       0.59645400      -1.32706297      -0.99721302       0.67022823
Fe       2.20317000       5.21693000       3.87451000      -3.92870900      -4.38103900      -4.92199500      -3.95151633      -4.36535136      -5.12945546
Fe       3.93082000       4.37819000       8.08226000       1.07616800       0.44807800      -0.99700400       0.92432520       0.21457492      -0.99212825
Fe       2.44961000       7.01753000       1.08943000       0.32119000      -1.55635000       3.27006500       0.43821211      -1.57683707       3.36076957
Fe       3.02500000       6.15780000       5.08193000      -1.08486800       1.64126100       3.95415400      -0.24163938       1.85110945       4.17452614
Fe       5.77712000       0.44616000       0.16142000      -2.43333700       0.07175000       4.13474700      -2.40197424       0.40773721       4.17297349
Fe       5.66964000       0.14892000       2.95259000      -3.67617900       1.90971100       0.12919700      -3.68244558       1.64312472       0.33226113
Fe       5.39484000       2.66317000       1.55162000       4.08183700      -3.39937100       3.88213200       3.99992329      -3.75819061       4.17366438
Fe       5.91309000       3.40423000       8.31953000       8.90196200       5.48305700      -2.72562400       8.76253324       5.37877990      -2.76105263
Fe       4.96126000       4.63305000       3.41410000      -3.60269200      -2.00302700       2.25051900      -3.87355185      -2.39544931       2.43112973
Fe       5.11347000       6.81217000       1.78872000      -0.87770500       0.06714300      -1.61156800      -0.74115146       0.14837285      -1.69283764
Fe       5.00950000       6.45991000       8.24507000      -2.30619500      -0.19808200      -1.52355700      -2.20362014      -0.01105231      -1.80395023
Fe       4.64263000       7.71190000       5.75084000       2.50156800       4.23919200      -1.55456800       2.55375577       4.29258835      -1.62978586
Fe       7.32285000       0.33022000       5.03535000      -0.99210900      -0.59745100       4.73628300      -0.93324105      -0.34206615       4.69140026
Fe       6.75330000       1.32958000       7.05071000       0.53851300       2.01290400       0.36400700       0.49212112       1.85545621       0.33460614
Fe       6.82686000       2.53028000       3.66692000      -0.08907100      -0.12987400      -0.26318300       0.02124536      -0.18245627      -0.18915783
Fe       6.83617000       5.56618000       0.59386000       1.74434500       1.47371700      -3.32847200       1.75949141       1.72397532      -3.48269558
Fe       8.27091000       4.29855000       2.87718000       3.23308900       0.33980500       1.37352500       3.07842267       0.16961033       1.33022450
Fe       6.58774000       4.90718000       4.97515000      -1.87594500       0.58060600      -0.05143700      -2.04316687       0.60408986      -0.47101318
Fe       6.86773000       6.79187000       3.27473000       1.52763600      -2.76254700       0.67579100       1.46123080      -2.42653836       0.35745466
Fe       8.09083000       8.29691000       0.84396000      -4.18921500      -1.95965200       9.56442300      -4.14191849      -2.19854914       9.66478923
Fe       6.62133000       7.67903000       7.47205000      -3.65417600       1.51975600      -3.32990400      -4.05665042       1.29091233      -3.47273824
B        3.45077000       6.81738000       6.75435000       2.04131500      -2.79808300       3.80923700       1.96537363      -2.92686365       3.90421087
B        4.67436000       1.10514000       4.73414000       0.75036200       0.95391600      -0.52852700       0.79390464       0.98849726      -0.41869865
B        6.18153000       2.20088000       5.47737000      -4.49435700      -3.20609500      -2.27763700      -4.64153798      -3.16312902      -2.51289428
B        5.08133000       4.10197000       6.35983000       0.35152900       0.25548900      -0.65354500       0.47814089       0.23177888      -0.55672417
B        4.48663000       4.29393000       1.40792000      -0.27448100       1.04603100       0.21283300      -0.24202664       1.25011968       0.21760659
B        4.96286000       5.88068000       6.14703000       0.60492000      -1.85032800       0.29314600       0.43426289      -1.82078849       0.12664842
B        8.17242000       5.65216000       5.55863000       1.00443800       0.65677900      -0.69824300       1.07506498       0.62811846      -0.23717825
B        7.98743000       6.92663000       6.60530000       5.86774900       2.58695800      -4.05103700       5.77733537       2.31946475      -3.43467519
B        7.10769000       5.72812000       6.91109000      -2.33709700      -3.34606800       1.34633400      -2.13037583      -3.44154905       1.47689608
B        7.81665000       6.81498000       8.33858000       5.04350100      -2.41043400       0.97359300       4.97223478      -2.57250411       0.43809690
Si       0.06983000       0.14925000       7.74742000       4.12649000       2.60901100      -8.87608100       3.94744786       2.53119524      -8.82144410
Si       1.93337000       2.41223000       3.74634000      10.14534600       2.98113100     -12.18526000      10.19369080       3.03195633     -12.01467264
Si       0.75978000       6.02813000       1.69309000      -4.13401100      -0.74920300       1.02787300      -4.13443256      -0.88787920       0.93805039
Si       2.22023000       5.10313000       7.16329000      -1.58663400       1.19675500      -1.89967800      -1.65704453       1.17321168      -1.85493770
Si       3.27754000       8.17117000       8.35443000       4.04667900       4.58101600      -2.24829100       3.88844427       4.48986029      -2.35434384
Si       4.48145000       2.18337000       8.34202000      -5.72220500      -5.96162700      -4.99603400      -5.46262156      -5.86767956      -5.18446308
Si       6.36439000       4.54151000       2.12641000       2.28764700      -2.33178900       1.39384200       2.60253909      -2.16377059       1.20711779
Si       4.52267000       6.51460000       3.75633000       0.42177200       5.22743800       1.25328700       0.12276937       5.33269131       1.35919843
Si       7.68278000       0.22257000       3.11016000      -0.17295300       4.89916800      -3.86478000      -0.21012866       4.87095142      -3.94644458
Si       7.35363000       3.38410000       6.13231000       4.40786200       1.27045000       2.62604800       4.41536238       1.44428987       2.97101820
54
Lattice="8.579999685 0.0 0.0 0.0 8.579999685 0.0 0.0 0.0 8.5799996" Properties=species:S:1:pos:R:3:REF_forces:R:3:MACE_forces:R:3 config_type=Fe34B10Si10 REF_energy=-354.71875992 MACE_energy=-355.27649639058916 pbc="T T T"
Fe       0.43313000       1.19321000       2.96848000       1.47291300       2.99028000       0.61180900       1.49694132       2.89798175       0.40686303
Fe       0.91365000       1.12516000       8.09995000       2.76260400      -2.00335600       1.20968300       2.39196485      -1.77058881       1.13231758
Fe       1.17142000       2.67870000       5.23446000      -1.90323000       6.04651700       0.58026800      -1.64733474       6.12535200       0.35039640
Fe       0.60772000       3.85484000       0.87278000       2.66909500       4.89444800       4.53699300       2.68541892       5.08623735       4.10898332
Fe       1.41565000       3.44858000       3.01161000      -0.29549500       2.03729500      -0.74017400      -0.00280015       1.93906392      -0.71776908
Fe       0.04226000       2.91249000       8.09734000      -3.39897200      -2.84207300      -2.69442200      -2.79141692      -3.00016816      -2.47588624
Fe       1.33282000       7.09057000       5.22634000      -0.45239700      -1.35392500       0.92503500      -0.23113976      -1.44430328       0.93526240
Fe       2.06045000       7.92051000       0.98063000      -3.11321000      -0.30108300      -2.49280600      -3.27912598      -0.43510404      -2.51504599
Fe       2.03627000       8.24295000       3.50701000      -1.42216600       4.38122900       0.88517600      -1.54413223       4.09651544       0.63293154
Fe       0.01253000       8.02686000       7.00667000       2.58679700       0.98610200     -11.80201700       2.49375320       0.86466248     -12.08330420
Fe       3.00353000       0.57289000       6.13981000      -1.03922300       0.18357300       0.93137300      -0.77247312       0.15635604       0.97659717
Fe       3.69949000       2.65196000       7.51811000       2.76433000      -4.34399200      -3.80269000       2.60433785      -4.14133996      -3.72176662
Fe       2.94478000       6.44154000       3.03987000       7.21319500      -3.66655800      -1.17614100       7.00602029      -3.43530300      -0.99714182
Fe       2.94309000       5.75189000       6.64956000      -6.24071800      -0.74678300       3.86021800      -6.43836623      -0.66356633       4.04564713
Fe       3.71160000       8.39321000       1.86324000       2.24845700      -0.43546600       0.28887200       2.41579879      -0.05913200       0.68099120
Fe       4.07810000       8.43915000       4.32840000       2.88035800       1.28304800      -0.49181300       2.84958371       1.29896399      -0.81980305
Fe       5.57499000       0.73262000       6.31633000      -3.12774100      -1.68249800      -0.98058200      -2.75908391      -1.75743253      -0.92947894
Fe       4.70712000       1.94493000       1.65492000      -2.04675700       4.97917500      -3.67899600      -2.10501722       4.73540423      -3.43253807
Fe       4.73401000       4.18392000       1.24748000       0.71501700       1.80608500      -0.06999200       0.70747947       1.96272754      -0.14359764
Fe       4.56687000       4.22266000       4.39618000       0.73801700       3.32591500      -2.10569900       0.47605236       3.18744855      -2.10266429
Fe       4.51224000       4.61167000       7.05684000       2.53211900      -0.41024200       0.53825400       2.94016705      -0.69358608       0.48374204
Fe       6.32808000       6.81945000       4.24288000      -3.20445400      -0.33519400      -1.28892300      -2.79129919      -0.23072896      -1.08348048
Fe       6.22240000       7.17309000       0.16230000      -3.30904600      -2.75215800       1.90373500      -3.46342195      -2.96185194       2.02163406
Fe       4.54224000       7.44382000       7.03838000       0.17895600      -5.02037800      -8.74618400       0.34220740      -5.27203779      -8.86496304
Fe       4.73272000       8.55832000       8.35561000      -0.10588400       8.96287400       6.54083400      -0.38113806       9.29412120       6.16369380
Fe       7.67285000       2.82429000       2.17742000      -2.12886900      -0.76272600      -2.06587500      -2.14521391      -0.80009795      -1.95044402
Fe       6.74071000       1.77406000       4.33655000       0.47479500       0.50025500      -0.42349800       0.06134031       0.39956755      -0.42745247
Fe       7.16362000       1.61896000       6.68131000       5.11373900       1.83737400       0.70818800       4.66593640       1.57678106       0.61509554
Fe       6.73653000       4.13840000       7.84564000       0.19062300       0.32905600       3.59274800       0.17514262       0.45879593       3.58954730
Fe       6.61248000       5.35948000       2.44590000       0.96755600      -0.77403900      -0.47053600       0.87034079      -0.67261238      -0.40519147
Fe       8.39074000       4.95678000       4.82580000       0.50677700       3.21370700       1.22596300       0.53595827       3.16714600       1.09563473
Fe       6.62275000       6.29700000       6.29237000       0.91106900      -0.58785400       1.74696000       0.82927780      -0.49923074       1.60174506
Fe       8.00875000       8.14674000       2.12563000      -1.25903800      -1.94608200      -3.37077000      -0.87509419      -1.85062005      -3.42565814
Fe       7.96861000       8.10559000       4.08816000       1.24434400       0.03207600       4.40361200       0.72938042       0.02585414       4.58139675
B        3.14587000       1.61638000       2.59818000      -3.96044800      -1.57388800      -2.24367700      -3.98179260      -1.46860633      -1.99859705
B        4.07212000       1.93087000       3.78701000       0.55534200       0.12762300      -3.25123200       0.34235040       0.12857577      -3.26886117
B        2.24412000       1.90783000       4.05913000      -1.80380000      -9.70850100      -5.48536600      -1.89234207     -10.10684123      -5.62046751
B        2.90130000       3.06657000       4.45062000       2.48509300       7.60479000      -1.50334300       2.85335580       7.26551444      -1.50268723
B        2.82587000       3.80138000       5.80651000       0.21675600       2.27927400       3.92227300       0.24145227       2.25460396       3.99570204
B        2.60929000       5.04297000       1.66311000       0.12617300      -0.77075900      -0.46531300      -0.00410980      -0.85462591      -0.47037481
B        2.47198000       4.95014000       4.32601000      -0.76752800      -1.31946700       0.35153300      -0.78606280      -1.20693877       0.47515620
B        2.73354000       7.81887000       7.66829000      -1.47869400      -0.15377200       0.00458000      -1.55342850      -0.16371475       0.23161979
B        5.68071000       2.28134000       7.79544000      -0.95924500       0.41857400       1.11780500      -0.97963685       0.40983867       1.09875226
B        7.77536000       3.70665000       3.76574000      -0.44877700      -1.48394500      -0.38974400      -0.52993507      -1.43879302      -0.09954231
Si       0.79518000       0.92195000       5.77957000      -1.66645900      -4.94136200      -1.10925300      -1.63811208      -4.97187765      -0.98256734
Si       0.88055000       4.20706000       6.73551000       1.15626000       3.58432200      -0.32349000       1.10250224       3.64423162      -0.21758250
Si       1.15025000       6.44729000       2.43826000      -7.77651300      -1.83655100      -1.54918700      -7.78303101      -1.74044229      -1.69988973
Si       2.82820000       3.29548000       0.50208000      -4.05499500       1.58525200       5.32597100      -4.04868562       1.35564386       5.25616058
Si       4.14031000       6.38272000       0.30005000      -2.16949800      -2.44928300       2.57761000      -2.34730497      -2.37600483       2.44100331
Si       3.68345000       6.43010000       5.01209000       3.98893100       0.98565200      -2.13453700       3.86813739       1.17032627      -2.19811565
Si       5.73751000       0.59059000       2.53265000       5.08228400      -4.90021500       2.23852200       5.10735301      -4.83585107       2.51934124
Si       4.51163000       2.47994000       5.36819000       2.60737700      -2.86786400       7.12589500       2.82055554      -2.57099169       7.12109635
Si       6.43436000       3.75222000       5.86206000       1.38008400       0.66155200      -3.64612400       1.49212613       0.69731847      -3.72714852
Si       8.06432000       7.52318000       8.55473000       2.36409700      -3.06603600      11.34847700       2.66656432      -2.77664068      11.32070855
18
Lattice="6.5 0.0 0.0 0.0 6.5 0.0 0.0 0.0 6.5" Properties=species:S:1:pos:R:3:REF_forces:R:3:MACE_forces:R:3 config_type=Fe12B3Si3 REF_energy=-113.87843945 MACE_energy=-113.01025627369597 pbc="T T T"
Fe       5.40234000       5.43492000       1.53729000      -1.39532100       2.04028400       0.71142300      -1.01811428       1.81102970       0.69609834
Fe       2.09750000       2.10361000       0.54730000       2.35673700      -0.33103000       1.27254800       2.58238929      -0.15378947       1.43070855
Fe       2.84360000       1.73250000       3.81271000       2.28004000      -1.18251600      -0.27344700       2.27896190      -1.01502497      -0.19022466
Fe       0.77541000       4.93717000       1.04317000       1.56096300      -3.83372900       1.76362000       1.18540789      -3.37370401       1.64154105
Fe       0.07665000       3.70431000       3.74351000      -0.75952900      -0.39175400      -2.23189700      -1.26082769      -0.47609180      -2.23880695
Fe       4.77171000       3.58949000       4.78220000      -1.99219600      -4.62409700       0.48420500      -1.60742212      -4.52542260       0.38022633
Fe       4.12430000       1.49867000       1.46476000       0.29771700      -2.38794700       0.28396300       0.22203888      -2.68584320       0.12323421
Fe       0.95387000       5.17746000       5.28728000      -0.57085000      -0.50160400      -1.80733600      -0.93962579      -0.62994347      -1.38457653
Fe       1.93602000       3.09888000       2.36598000      -0.08855100       0.43128300      -0.27209000      -0.20431729       0.45045021      -0.72107402
Fe       5.69037000       1.28357000       4.20026000      -0.40866000      -0.49067900       0.18976600      -0.87446123      -0.33914692       0.20808306
Fe       1.94321000       2.86141000       5.39871000      -0.55906500       0.73218900      -1.80086600      -0.42740204       0.66858688      -1.95946904
Fe       4.33122000       5.38124000       5.25469000      -0.73272900       4.56545400       1.52017900      -0.52432693       4.37357281       1.59598883
B        0.37598000       1.64060000       1.21420000      -3.21263000       2.85095800       0.76078000      -2.91195381       2.68378877       0.74697993
B        1.88110000       4.04794000       3.96741000       2.48956600       2.45119300      -0.32261600       2.65804956       2.45077604      -0.24869696
B        3.63878000       0.94242000       5.41981000      -0.01444500       0.67937600       0.95779200       0.09375412       0.80682147       1.07157181
Si       1.19380000       0.26963000       0.19686000       0.54051800       0.24528300      -1.93219100       0.61267868       0.06666643      -1.78780673
Si       4.57825000       3.47658000       1.16117000       0.15934200       1.26766700      -0.81102600       0.17136269       1.53992505      -0.84064579
Si       1.09558000       0.76720000       2.75124000       0.04909300      -1.52033200       1.50719200      -0.03619183      -1.65265092       1.47686858
54
Lattice="8.579999685 0.0 0.0 0.0 8.579999685 0.0 0.0 0.0 8.5799996" Properties=species:S:1:pos:R:3:REF_forces:R:3:MACE_forces:R:3 config_type=Fe34B10Si10 REF_energy=-356.0869274 MACE_energy=-356.90591671589937 pbc="T T T"
Fe       0.92877000       1.08311000       2.12831000      -0.53214900      -1.15432400       0.53007800      -0.74198244      -1.17220959       0.39121489
Fe       1.12794000       0.45096000       7.37327000      -2.86345100       2.18226700       1.45805300      -2.80544583       1.96171419       1.40899079
Fe       0.91289000       3.61082000       1.96264000      -1.66570100       0.50807500      -4.76654600      -1.76528221       0.39108043      -4.82574193
Fe       0.97242000       3.25012000       3.83975000      -0.85629000      -1.23507100      -0.91491200      -1.11848156      -1.26493374      -0.13560778
Fe       1.43574000       3.84332000       5.84621000      -1.94378300      -0.72872400       4.94145300      -2.08480267      -0.66959339       4.79347342
Fe       0.45897000       5.99881000       1.32384000       1.86679900       1.45939200      -0.33976700       1.63044433       1.49427054      -0.18259545
Fe       0.05714000       6.25044000       6.01250000       0.66851500      -0.88142700       1.67028200       0.65064543      -0.76254118       1.67129013
Fe       1.87526000       7.05991000       7.27744000      -5.90957000       6.81146600       5.95768600      -5.73116253       7.29151558       6.01456283
Fe       4.21220000       0.80536000       3.81626000       0.44958900      -1.97725700       0.54591300       0.44412979      -1.87387798       0.39283239
Fe       2.64196000       0.75311000       5.88605000       0.80305000      -0.92688600      -1.50973400       0.48642395      -1.02635344      -1.52947081
Fe       2.51735000       4.27963000       7.86001000      -0.17185400       2.88247300       0.00075600      -0.00219289       2.91285401       0.13551228
Fe       2.46175000       4.76211000       4.38544000       2.27245000       6.36429500      -0.60000700       2.21093818       6.39165127      -0.78007326
Fe       3.99132000       4.46692000       6.09268000      -0.21521200      -1.96607600      -0.25853400      -0.17660911      -2.29752337      -0.19976325
Fe       4.03283000       6.20484000       2.50717000       0.32509400      -1.83048700       1.07686200       0.40638798      -1.76401532       1.04533779
Fe       2.62183000       8.12097000       1.25125000      -5.45108600      -1.04608100      -0.88869000      -5.49617754      -1.14698089      -0.63991324
Fe       2.34208000       7.49949000       3.33705000      -1.45221900       0.10179900       1.96325000      -1.28378895       0.16935838       1.64695636
Fe       4.67554000       0.98699000       8.35162000       1.97529500       0.95938300       0.07305200       1.66937885       0.89303985       0.28853369
Fe       4.68615000       2.28426000       1.60336000       6.03713100       4.39249100       1.56082500       6.25237140       4.32120088       1.11411462
Fe       4.95897000       4.28949000       0.91503000       1.24258400       3.77490300      -1.07876200       0.85122828       3.59731050      -1.23066573
Fe       5.62605000       3.84953000       3.25301000      -4.56775200       3.43217100       2.09526400      -4.52060901       3.54175827       1.89521781
Fe       5.63153000       5.70233000       4.67966000       0.04558900       0.36352900      -0.74034800       0.02869871      -0.03746973      -0.58349404
Fe       5.00954000       6.14620000       6.89198000       4.51113600      -2.60361300       1.43664400       4.57919635      -2.35838641       1.43533429
Fe       5.34723000       7.32984000       0.56425000       3.41130600      -7.55812200      -7.44238600       3.54119326      -7.03275224      -7.28500059
Fe       4.57141000       8.20633000       1.67615000      -2.51651100       6.57056000       9.11650700      -2.72709518       6.02831108       8.74105257
Fe       5.67084000       7.83697000       6.02451000      -0.02983000       3.57151200       0.33120700      -0.00811200       3.56772793       0.32464812
Fe       7.65837000       1.05332000       0.64336000       1.95813700       2.93603900      -3.62028800       1.88218504       2.87989218      -3.57174773
Fe       7.23579000       1.49494000       3.62009000       0.88838800      -1.50203300       3.00240400       0.92716806      -1.45166427       3.09275534
Fe       6.96409000       1.59543000       6.70415000       0.40175100      -2.57633900      -0.54943900       0.53255140      -2.53229389      -0.60518868
Fe       6.97946000       3.05325000       2.27831000       3.01329100      -2.85779700      -7.80747400       2.46991868      -2.95987829      -7.29134826
Fe       7.05854000       3.62734000       7.13255000       0.94483300       2.42104600       2.56329500       1.04339204       2.48478437       2.52044285
Fe       7.47490000       4.49325000       0.92243000      -3.13561000       0.06366500       0.11142200      -2.87274188       0.50934342      -0.12863212
Fe       7.76499000       5.40883000       4.05655000       3.42051700      -2.49950500       1.10150300       3.48580160      -2.62108784       1.13620633
Fe       6.91686000       6.16423000       2.38917000      -4.34160700       0.52717700      -3.24358900      -4.32778030       0.53928688      -3.21810903
Fe       7.31773000       7.39473000       4.73130000      -1.41907300       3.06948200       1.38572900      -1.50532122       2.95719693       1.44320850
B        1.63947000       5.44017000       2.85377000      -1.37965300       1.67099600      -0.34434500      -1.49790994       1.78153677      -0.55258543
B        3.47444000       1.29905000       1.69513000      -6.04542900      -7.46227000      -1.52467000      -5.89898755      -7.11142830      -1.03818066
B        2.31673000       1.42955000       3.77944000      -1.85652800      -2.14982900       3.21956500      -1.67799010      -1.97619005       3.41605548
B        3.17088000       0.01260000       8.16689000      -2.14308300      -0.12737100      -3.63430700      -1.99640402       0.10583916      -3.58848522
B        2.48887000       2.23189000       2.44876000      -1.30373000       3.96631200      -0.94871100      -0.89557862       3.81047708      -1.29361697
B        3.55016000       3.21990000       0.17024000       2.13469500      -3.52588700       0.23974700       2.11182193      -3.40503559       0.31266698
B        3.12966000       3.07291000       4.24572000      -6.99085300       0.34377600      -0.16579100      -7.04971020       0.15578920      -0.14846576
B        2.38358000       5.95301000       6.34325000       2.25901800      -8.76611800      -6.31465800       2.15465053      -9.28995021      -6.57705180
B        4.46260000       2.62992000       4.23823000       7.08507900      -1.75449200       0.40993300       7.16885375      -1.90295902       0.44716921
B        7.51183000       3.59374000       3.85724000       1.49621300      -1.20378300       3.39561400       1.55638651      -1.05358608       3.20951226
Si       0.50050000       1.66927000       5.10425000      -1.02554400      -2.67263500       2.61432900      -0.77904492      -2.92474797       2.67014007
Si       0.41923000       4.50138000       8.15701000       0.82744200      -0.47721100      -2.57541600       1.07948493      -0.40852511      -2.90380668
Si       2.90131000       4.25049000       1.93860000       2.71957100       0.04497600      -0.88170100       2.88258050      -0.00943145      -1.08759742
Si       3.74353000       6.85388000       5.19884000      -1.20766000       1.80214700      -2.20114300      -1.05763425       2.07766681      -2.11440255
Si       3.54209000       6.47938000       8.21357000      -0.45014500      -1.75854100       4.24377300      -0.53785027      -2.03009592       4.42312193
Si       4.55252000       1.74669000       6.40118000       0.28733400       0.20348600      -1.69136000       0.20887209       0.11095240      -1.58697951
Si       5.87020000       3.30923000       5.41310000       1.93974000       0.55942400      -1.14043100       1.57223615       0.81698738      -1.08356276
Si       6.68392000       0.09389000       2.07850000      -2.78148600      -1.30329400       2.70552900      -2.42065990      -1.22585976       2.78967435
Si       7.30980000       7.36953000       0.08595000       4.18267400      -0.22507900      -1.67891000       4.11726935      -0.48911195      -1.68430442
Si       8.41387000       7.50606000       2.97540000       5.08859000       1.78741200      -0.88875800       5.03514604       2.00693747      -0.89363420
54
Lattice="8.579999685 0.0 0.0 0.0 8.579999685 0.0 0.0 0.0 8.5799996" Properties=species:S:1:pos:R:3:REF_forces:R:3:MACE_forces:R:3 config_type=Fe34B10Si10 REF_energy=-359.84864784 MACE_energy=-360.0912390707565 pbc="T T T"
Fe       0.39531000       2.37288000       0.87042000       3.27925500       2.43832800      -1.60261100       3.20871352       2.70378672      -1.74328731
Fe       0.75383000       1.65209000       3.11094000       1.30783500      -0.34615400      -0.09267000       1.29154047      -0.88712237       0.11935908
Fe       1.33201000       3.79282000       7.26231000      -2.40668100      -1.18131200       0.32245500      -2.60671425      -1.12201973       0.30048578
Fe       0.64436000       4.41396000       2.97573000       2.42004200      -2.26182600       0.38963900       2.48459695      -2.05667694       0.34197302
Fe       0.14751000       6.42079000       3.51005000      -3.07002100       1.32407200      -2.30638400      -3.04317146       1.25626617      -2.34255875