54
Lattice="8.579999685 0.0 0.0 0.0 8.579999685 0.0 0.0 0.0 8.5799996" Properties=species:S:1:pos:R:3:REF_forces:R:3:MACE_forces:R:3 config_type=Fe34B10Si10 REF_energy=-352.89092233 MACE_energy=-353.31619174435855 pbc="T T T"
Fe       1.46495000       0.71583000       1.12880000       3.73230100      -3.41607500      -3.76209700       3.68871852      -3.51795928      -3.54613765
Fe       0.56244000       2.07917000       1.96452000      -3.31290700       4.06628900       2.54508600      -3.22309200       3.96903886       2.34675235
Fe       0.86636000       2.12990000       5.00906000     -10.85567700      -2.87102900      12.20968700     -10.94375924      -2.95533149      12.21902260
Fe       0.24697000       2.61233000       7.83061000      -0.37811800      -2.03816900      -0.08744800      -0.42123742      -1.90689852       0.08594887
Fe       0.35437000       4.66395000       8.16447000      -1.30300600       1.62250000       0.84662400      -1.32908852       1.61045498       0.77289119
Fe       0.83543000       8.00840000       3.01492000       5.54921000      -2.55787300       0.52513800       5.70675525      -2.53138102       0.38495022
Fe       2.03952000       7.84431000       6.63062000      -4.28706100       1.82495200      -1.68802900      -4.07254756       1.96396924      -1.64166443
Fe       3.34318000       0.11090000       2.96052000      -0.46571400      -0.35056300       0.37864800      -0.52329791      -0.22123125       0.47466112
Fe       3.26317000       2.11539000       1.48699000      -3.47884800      -0.03222100       0.61542300      -3.42182101      -0.30398708       0.16593736
Fe       4.14313000       2.75755000       3.31065000      -0.71378000      -2.73118300       1.93004800      -0.61557084      -2.40356146       1.85600072
Fe       2.55051000       2.67374000       7.19710000      -2.55215900      -0.93589000       1.77261600      -2.30144722      -1.14523705       1.71714114
Fe       3.61327000       2.86500000       5.46497000       1.55763200       0.20514300      -0.56676300       1.46448021       0.27457146      -0.27972433
Fe       2.62400000       4.72550000       1.39174000      -1.08585200      -1.19598700       0.59645400      -1.35122999      -1.01172724       0.69812773
Fe       2.20317000       5.21693000       3.87451000      -3.92870900      -4.38103900      -4.92199500      -3.85819407      -4.39692515      -4.97768952
Fe       3.93082000       4.37819000       8.08226000       1.07616800       0.44807800      -0.99700400       1.03206005       0.30213344      -0.91792810
Fe       2.44961000       7.01753000       1.08943000       0.32119000      -1.55635000       3.27006500       0.44567826      -1.63706783       3.26136640
Fe       3.02500000       6.15780000       5.08193000      -1.08486800       1.64126100       3.95415400      -0.64051111       1.64552933       4.04633351
Fe       5.77712000       0.44616000       0.16142000      -2.43333700       0.07175000       4.13474700      -2.47320507       0.40773426       4.22067342
Fe       5.66964000       0.14892000       2.95259000      -3.67617900       1.90971100       0.12919700      -3.64537330       1.65330642       0.31722681
Fe       5.39484000       2.66317000       1.55162000       4.08183700      -3.39937100       3.88213200       4.02670960      -3.64371197       4.03162861
Fe       5.91309000       3.40423000       8.31953000       8.90196200       5.48305700      -2.72562400       8.72674096       5.46746113      -2.71998277
Fe       4.96126000       4.63305000       3.41410000      -3.60269200      -2.00302700       2.25051900      -3.72850703      -2.22204424       2.37568934
Fe       5.11347000       6.81217000       1.78872000      -0.87770500       0.06714300      -1.61156800      -0.70370625       0.07258076      -1.56786578
Fe       5.00950000       6.45991000       8.24507000      -2.30619500      -0.19808200      -1.52355700      -2.27716428       0.01827748      -1.66751375
Fe       4.64263000       7.71190000       5.75084000       2.50156800       4.23919200      -1.55456800       2.61350352       4.25968098      -1.58917684
Fe       7.32285000       0.33022000       5.03535000      -0.99210900      -0.59745100       4.73628300      -1.02497269      -0.38535149       4.81419833
Fe       6.75330000       1.32958000       7.05071000       0.53851300       2.01290400       0.36400700       0.56457787       1.82527900       0.28072839
Fe       6.82686000       2.53028000       3.66692000      -0.08907100      -0.12987400      -0.26318300      -0.06532821      -0.21524350      -0.24727002
Fe       6.83617000       5.56618000       0.59386000       1.74434500       1.47371700      -3.32847200       1.80823259       1.62582429      -3.40168900
Fe       8.27091000       4.29855000       2.87718000       3.23308900       0.33980500       1.37352500       3.21128923       0.23092351       1.33280178
Fe       6.58774000       4.90718000       4.97515000      -1.87594500       0.58060600      -0.05143700      -2.13396743       0.60701697      -0.28281890
Fe       6.86773000       6.79187000       3.27473000       1.52763600      -2.76254700       0.67579100       1.39898603      -2.41178834       0.40224541
Fe       8.09083000       8.29691000       0.84396000      -4.18921500      -1.95965200       9.56442300      -4.20908899      -2.33378751       9.67476072
Fe       6.62133000       7.67903000       7.47205000      -3.65417600       1.51975600      -3.32990400      -3.88688052       1.22853848      -3.51993175
B        3.45077000       6.81738000       6.75435000       2.04131500      -2.79808300       3.80923700       1.90615863      -2.69786563       3.93420029
B        4.67436000       1.10514000       4.73414000       0.75036200       0.95391600      -0.52852700       0.82443931       0.87127664      -0.46515794
B        6.18153000       2.20088000       5.47737000      -4.49435700      -3.20609500      -2.27763700      -4.71060632      -3.15137587      -2.46936829
B        5.08133000       4.10197000       6.35983000       0.35152900       0.25548900      -0.65354500       0.58143231       0.33757425      -0.64504271
B        4.48663000       4.29393000       1.40792000      -0.27448100       1.04603100       0.21283300      -0.26793997       1.21637260       0.15915566
B        4.96286000       5.88068000       6.14703000       0.60492000      -1.85032800       0.29314600       0.64117646      -1.92247974       0.12330588
B        8.17242000       5.65216000       5.55863000       1.00443800       0.65677900      -0.69824300       1.02813499       0.74843676      -0.34184139
B        7.98743000       6.92663000       6.60530000       5.86774900       2.58695800      -4.05103700       5.84573633       2.51641891      -3.74243272
B        7.10769000       5.72812000       6.91109000      -2.33709700      -3.34606800       1.34633400      -2.34036858      -3.51608769       1.28953784
B        7.81665000       6.81498000       8.33858000       5.04350100      -2.41043400       0.97359300       5.17531733      -2.41188381       0.75993992
Si       0.06983000       0.14925000       7.74742000       4.12649000       2.60901100      -8.87608100       3.95618760       2.63845616      -8.86966764
Si       1.93337000       2.41223000       3.74634000      10.14534600       2.98113100     -12.18526000      10.23334863       3.11195021     -12.01083220
Si       0.75978000       6.02813000       1.69309000      -4.13401100      -0.74920300       1.02787300      -4.12873274      -0.86496294       1.03573053
Si       2.22023000       5.10313000       7.16329000      -1.58663400       1.19675500      -1.89967800      -1.78136225       1.17442958      -1.93572952
Si       3.27754000       8.17117000       8.35443000       4.04667900       4.58101600      -2.24829100       3.90878576       4.54144218      -2.47180753
Si       4.48145000       2.18337000       8.34202000      -5.72220500      -5.96162700      -4.99603400      -5.48854330      -5.82513874      -5.13790911
Si       6.36439000       4.54151000       2.12641000       2.28764700      -2.33178900       1.39384200       2.60184223      -2.24161802       1.26187412
Si       4.52267000       6.51460000       3.75633000       0.42177200       5.22743800       1.25328700       0.14721818       5.38767946       1.40375406
Si       7.68278000       0.22257000       3.11016000      -0.17295300       4.89916800      -3.86478000      -0.30958980       4.76943939      -3.98853677
Si       7.35363000       3.38410000       6.13231000       4.40786200       1.27045000       2.62604800       4.33962375       1.39885015       2.99113428
54
Lattice="8.579999685 0.0 0.0 0.0 8.579999685 0.0 0.0 0.0 8.5799996" Properties=species:S:1:pos:R:3:REF_forces:R:3:MACE_forces:R:3 config_type=Fe34B10Si10 REF_energy=-354.71875992 MACE_energy=-355.36495889241473 pbc="T T T"
Fe       0.43313000       1.19321000       2.96848000       1.47291300       2.99028000       0.61180900       1.61776286       2.98642419       0.31447725
Fe       0.91365000       1.12516000       8.09995000       2.76260400      -2.00335600       1.20968300       2.58137807      -2.15922137       1.11945543
Fe       1.17142000       2.67870000       5.23446000      -1.90323000       6.04651700       0.58026800      -1.68433852       6.29988681       0.60946533
Fe       0.60772000       3.85484000       0.87278000       2.66909500       4.89444800       4.53699300       2.66276230       5.10577462       4.27010824
Fe       1.41565000       3.44858000       3.01161000      -0.29549500       2.03729500      -0.74017400      -0.28553862       1.93597338      -0.67139694
Fe       0.04226000       2.91249000       8.09734000      -3.39897200      -2.84207300      -2.69442200      -3.10944669      -2.75327804      -2.50920374
Fe       1.33282000       7.09057000       5.22634000      -0.45239700      -1.35392500       0.92503500      -0.21246663      -1.49790996       0.81190591
Fe       2.06045000       7.92051000       0.98063000      -3.11321000      -0.30108300      -2.49280600      -3.23921474      -0.54057815      -2.33119223
Fe       2.03627000       8.24295000       3.50701000      -1.42216600       4.38122900       0.88517600      -1.53179762       4.19711927       0.55484828
Fe       0.01253000       8.02686000       7.00667000       2.58679700       0.98610200     -11.80201700       2.50983814       0.82661148     -11.92261396
Fe       3.00353000       0.57289000       6.13981000      -1.03922300       0.18357300       0.93137300      -0.71367127      -0.02280675       1.08393028
Fe       3.69949000       2.65196000       7.51811000       2.76433000      -4.34399200      -3.80269000       2.56906075      -4.14463449      -3.68472364
Fe       2.94478000       6.44154000       3.03987000       7.21319500      -3.66655800      -1.17614100       7.12232617      -3.36839511      -0.91971261
Fe       2.94309000       5.75189000       6.64956000      -6.24071800      -0.74678300       3.86021800      -6.60406091      -0.76084243       3.88237535
Fe       3.71160000       8.39321000       1.86324000       2.24845700      -0.43546600       0.28887200       2.35992089      -0.25238550       0.52999059
Fe       4.07810000       8.43915000       4.32840000       2.88035800       1.28304800      -0.49181300       2.94508447       1.48812036      -0.80736063
Fe       5.57499000       0.73262000       6.31633000      -3.12774100      -1.68249800      -0.98058200      -2.98614503      -1.73452607      -1.03536055
Fe       4.70712000       1.94493000       1.65492000      -2.04675700       4.97917500      -3.67899600      -2.14534072       4.82584889      -3.40131561
Fe       4.73401000       4.18392000       1.24748000       0.71501700       1.80608500      -0.06999200       0.71629000       2.00147595      -0.15250631
Fe       4.56687000       4.22266000       4.39618000       0.73801700       3.32591500      -2.10569900       0.61278982       3.50248059      -2.31200034
Fe       4.51224000       4.61167000       7.05684000       2.53211900      -0.41024200       0.53825400       2.99471338      -0.69639956       0.64889146
Fe       6.32808000       6.81945000       4.24288000      -3.20445400      -0.33519400      -1.28892300      -2.85878967      -0.30852768      -1.08903485
Fe       6.22240000       7.17309000       0.16230000      -3.30904600      -2.75215800       1.90373500      -3.54980355      -2.98137907       1.92306106
Fe       4.54224000       7.44382000       7.03838000       0.17895600      -5.02037800      -8.74618400       0.15868444      -5.31887560      -8.86542516
Fe       4.73272000       8.55832000       8.35561000      -0.10588400       8.96287400       6.54083400      -0.24701851       9.47737883       6.42523489
Fe       7.67285000       2.82429000       2.17742000      -2.12886900      -0.76272600      -2.06587500      -2.11623927      -0.69746752      -1.92218874
Fe       6.74071000       1.77406000       4.33655000       0.47479500       0.50025500      -0.42349800       0.13880425       0.53164050      -0.56340253
Fe       7.16362000       1.61896000       6.68131000       5.11373900       1.83737400       0.70818800       4.96283316       1.65679902       0.64363122
Fe       6.73653000       4.13840000       7.84564000       0.19062300       0.32905600       3.59274800       0.35170903       0.46342186       3.69180591
Fe       6.61248000       5.35948000       2.44590000       0.96755600      -0.77403900      -0.47053600       0.91261459      -0.76671322      -0.38237737
Fe       8.39074000       4.95678000       4.82580000       0.50677700       3.21370700       1.22596300       0.54634449       3.13906293       1.08794696
Fe       6.62275000       6.29700000       6.29237000       0.91106900      -0.58785400       1.74696000       0.85335420      -0.46450808       1.52648250
Fe       8.00875000       8.14674000       2.12563000      -1.25903800      -1.94608200      -3.37077000      -0.86889135      -1.96651173      -3.54164891
Fe       7.96861000       8.10559000       4.08816000       1.24434400       0.03207600       4.40361200       0.68659435      -0.04340189       4.64029960
B        3.14587000       1.61638000       2.59818000      -3.96044800      -1.57388800      -2.24367700      -4.10177048      -1.55364025      -2.21151234
B        4.07212000       1.93087000       3.78701000       0.55534200       0.12762300      -3.25123200       0.40138208      -0.04200675      -3.38775663
B        2.24412000       1.90783000       4.05913000      -1.80380000      -9.70850100      -5.48536600      -1.83764358      -9.88577726      -5.58627709
B        2.90130000       3.06657000       4.45062000       2.48509300       7.60479000      -1.50334300       2.77963000       7.07026050      -1.35735217
B        2.82587000       3.80138000       5.80651000       0.21675600       2.27927400       3.92227300       0.27751294       2.13961813       3.96821754
B        2.60929000       5.04297000       1.66311000       0.12617300      -0.77075900      -0.46531300      -0.03972726      -0.94493723      -0.47052024
B        2.47198000       4.95014000       4.32601000      -0.76752800      -1.31946700       0.35153300      -0.91742271      -1.12455598       0.33613268
B        2.73354000       7.81887000       7.66829000      -1.47869400      -0.15377200       0.00458000      -1.41576833      -0.13028025       0.10289932
B        5.68071000       2.28134000       7.79544000      -0.95924500       0.41857400       1.11780500      -1.05181985       0.37224801       1.11657071
B        7.77536000       3.70665000       3.76574000      -0.44877700      -1.48394500      -0.38974400      -0.49602056      -1.37879577      -0.18713145
Si       0.79518000       0.92195000       5.77957000      -1.66645900      -4.94136200      -1.10925300      -1.65161076      -5.09142201      -0.91732927
Si       0.88055000       4.20706000       6.73551000       1.15626000       3.58432200      -0.32349000       1.13614540       3.70537401      -0.28409908
Si       1.15025000       6.44729000       2.43826000      -7.77651300      -1.83655100      -1.54918700      -7.83506781      -1.65353007      -1.75346799
Si       2.82820000       3.29548000       0.50208000      -4.05499500       1.58525200       5.32597100      -4.13975261       1.39243261       5.15806779
Si       4.14031000       6.38272000       0.30005000      -2.16949800      -2.44928300       2.57761000      -2.30783358      -2.38046518       2.44279400
Si       3.68345000       6.43010000       5.01209000       3.98893100       0.98565200      -2.13453700       3.92090198       1.19790585      -2.03546928
Si       5.73751000       0.59059000       2.53265000       5.08228400      -4.90021500       2.23852200       5.20450053      -5.00552539       2.54012842
Si       4.51163000       2.47994000       5.36819000       2.60737700      -2.86786400       7.12589500       2.71962945      -2.59372960       7.30370131
Si       6.43436000       3.75222000       5.86206000       1.38008400       0.66155200      -3.64612400       1.49590014       0.68655566      -3.78710892
Si       8.06432000       7.52318000       8.55473000       2.36409700      -3.06603600      11.34847700       2.70873271      -2.73938547      11.35706656
18
Lattice="6.5 0.0 0.0 0.0 6.5 0.0 0.0 0.0 6.5" Properties=species:S:1:pos:R:3:REF_forces:R:3:MACE_forces:R:3 config_type=Fe12B3Si3 REF_energy=-113.87843945 MACE_energy=-112.47522357106149 pbc="T T T"
Fe       5.40234000       5.43492000       1.53729000      -1.39532100       2.04028400       0.71142300      -1.15780427       2.05611172       0.78450183
Fe       2.09750000       2.10361000       0.54730000       2.35673700      -0.33103000       1.27254800       2.73718971      -0.25812397       1.35719092
Fe       2.84360000       1.73250000       3.81271000       2.28004000      -1.18251600      -0.27344700       2.26207076      -1.08318221      -0.32323006
Fe       0.77541000       4.93717000       1.04317000       1.56096300      -3.83372900       1.76362000       1.54846525      -3.66726895       1.57828498
Fe       0.07665000       3.70431000       3.74351000      -0.75952900      -0.39175400      -2.23189700      -0.84699583      -0.46723172      -2.36344848
Fe       4.77171000       3.58949000       4.78220000      -1.99219600      -4.62409700       0.48420500      -1.81847542      -4.54684906       0.45129139
Fe       4.12430000       1.49867000       1.46476000       0.29771700      -2.38794700       0.28396300       0.36114715      -2.68641832       0.15026325
Fe       0.95387000       5.17746000       5.28728000      -0.57085000      -0.50160400      -1.80733600      -0.81920160      -0.68345938      -1.38715178
Fe       1.93602000       3.09888000       2.36598000      -0.08855100       0.43128300      -0.27209000      -0.23580742       0.58879599      -0.36491134
Fe       5.69037000       1.28357000       4.20026000      -0.40866000      -0.49067900       0.18976600      -0.67870892      -0.37167290       0.24234148
Fe       1.94321000       2.86141000       5.39871000      -0.55906500       0.73218900      -1.80086600      -0.70254916       1.16449324      -2.20957439
Fe       4.33122000       5.38124000       5.25469000      -0.73272900       4.56545400       1.52017900      -0.62531303       4.49777706       1.60227613
B        0.37598000       1.64060000       1.21420000      -3.21263000       2.85095800       0.76078000      -3.21385003       2.74775350       1.03350946
B        1.88110000       4.04794000       3.96741000       2.48956600       2.45119300      -0.32261600       2.51179979       2.22913522      -0.26466238
B        3.63878000       0.94242000       5.41981000      -0.01444500       0.67937600       0.95779200       0.02141575       0.77701683       1.08899676
Si       1.19380000       0.26963000       0.19686000       0.54051800       0.24528300      -1.93219100       0.59298918      -0.00764395      -1.88710679
Si       4.57825000       3.47658000       1.16117000       0.15934200       1.26766700      -0.81102600       0.19788510       1.34490547      -0.75973293
Si       1.09558000       0.76720000       2.75124000       0.04909300      -1.52033200       1.50719200      -0.13425700      -1.63413857       1.27116194
54
Lattice="8.579999685 0.0 0.0 0.0 8.579999685 0.0 0.0 0.0 8.5799996" Properties=species:S:1:pos:R:3:REF_forces:R:3:MACE_forces:R:3 config_type=Fe34B10Si10 REF_energy=-356.0869274 MACE_energy=-357.0941145434599 pbc="T T T"
Fe       0.92877000       1.08311000       2.12831000      -0.53214900      -1.15432400       0.53007800      -0.61369356      -1.16436609       0.46644198
Fe       1.12794000       0.45096000       7.37327000      -2.86345100       2.18226700       1.45805300      -2.73903119       2.08692771       1.41113246
Fe       0.91289000       3.61082000       1.96264000      -1.66570100       0.50807500      -4.76654600      -1.57863319       0.09494236      -4.45938623
Fe       0.97242000       3.25012000       3.83975000      -0.85629000      -1.23507100      -0.91491200      -1.09066610      -1.04649627      -0.64840454
Fe       1.43574000       3.84332000       5.84621000      -1.94378300      -0.72872400       4.94145300      -2.06300353      -0.53646144       4.72081803
Fe       0.45897000       5.99881000       1.32384000       1.86679900       1.45939200      -0.33976700       1.67065733       1.46351492      -0.16854968
Fe       0.05714000       6.25044000       6.01250000       0.66851500      -0.88142700       1.67028200       0.62279020      -0.75179443       1.73443236
Fe       1.87526000       7.05991000       7.27744000      -5.90957000       6.81146600       5.95768600      -5.62547348       6.97073219       5.78889800
Fe       4.21220000       0.80536000       3.81626000       0.44958900      -1.97725700       0.54591300       0.53394598      -1.79922162       0.46469171
Fe       2.64196000       0.75311000       5.88605000       0.80305000      -0.92688600      -1.50973400       0.49735432      -1.09060409      -1.51747444
Fe       2.51735000       4.27963000       7.86001000      -0.17185400       2.88247300       0.00075600      -0.18514589       3.06075806       0.07259828
Fe       2.46175000       4.76211000       4.38544000       2.27245000       6.36429500      -0.60000700       2.29069096       6.36836303      -0.47406829
Fe       3.99132000       4.46692000       6.09268000      -0.21521200      -1.96607600      -0.25853400      -0.33727543      -2.19951213      -0.14488949
Fe       4.03283000       6.20484000       2.50717000       0.32509400      -1.83048700       1.07686200       0.35255453      -1.77745590       1.10741625
Fe       2.62183000       8.12097000       1.25125000      -5.45108600      -1.04608100      -0.88869000      -5.60099277      -1.09170434      -0.67154285
Fe       2.34208000       7.49949000       3.33705000      -1.45221900       0.10179900       1.96325000      -1.30220059       0.10663560       1.58516693
Fe       4.67554000       0.98699000       8.35162000       1.97529500       0.95938300       0.07305200       1.71220314       0.86531230       0.33487703
Fe       4.68615000       2.28426000       1.60336000       6.03713100       4.39249100       1.56082500       6.16517598       4.36493802       1.11554607
Fe       4.95897000       4.28949000       0.91503000       1.24258400       3.77490300      -1.07876200       0.80167925       3.55313741      -1.17081689
Fe       5.62605000       3.84953000       3.25301000      -4.56775200       3.43217100       2.09526400      -4.72214318       3.42900426       1.95028399
Fe       5.63153000       5.70233000       4.67966000       0.04558900       0.36352900      -0.74034800       0.11245384      -0.04836764      -0.58341792
Fe       5.00954000       6.14620000       6.89198000       4.51113600      -2.60361300       1.43664400       4.57081928      -2.56723920       1.28642989
Fe       5.34723000       7.32984000       0.56425000       3.41130600      -7.55812200      -7.44238600       3.21589510      -7.16218336      -7.12992792
Fe       4.57141000       8.20633000       1.67615000      -2.51651100       6.57056000       9.11650700      -2.30343615       6.19756435       8.83888388
Fe       5.67084000       7.83697000       6.02451000      -0.02983000       3.57151200       0.33120700      -0.04572557       3.68057837       0.46301512
Fe       7.65837000       1.05332000       0.64336000       1.95813700       2.93603900      -3.62028800       1.78626774       2.79802747      -3.41496924
Fe       7.23579000       1.49494000       3.62009000       0.88838800      -1.50203300       3.00240400       1.06831356      -1.49906247       3.00439547
Fe       6.96409000       1.59543000       6.70415000       0.40175100      -2.57633900      -0.54943900       0.43736909      -2.38784987      -0.46712198
Fe       6.97946000       3.05325000       2.27831000       3.01329100      -2.85779700      -7.80747400       2.66540848      -2.88319421      -7.42436438
Fe       7.05854000       3.62734000       7.13255000       0.94483300       2.42104600       2.56329500       0.99488078       2.27284352       2.34850984
Fe       7.47490000       4.49325000       0.92243000      -3.13561000       0.06366500       0.11142200      -2.80505977       0.41149599      -0.12968764
Fe       7.76499000       5.40883000       4.05655000       3.42051700      -2.49950500       1.10150300       3.63551761      -2.68025625       1.13938783
Fe       6.91686000       6.16423000       2.38917000      -4.34160700       0.52717700      -3.24358900      -4.38742207       0.87965017      -3.26109039
Fe       7.31773000       7.39473000       4.73130000      -1.41907300       3.06948200       1.38572900      -1.46079846       2.97985932       1.32473384
B        1.63947000       5.44017000       2.85377000      -1.37965300       1.67099600      -0.34434500      -1.41198428       1.76988464      -0.52868032
B        3.47444000       1.29905000       1.69513000      -6.04542900      -7.46227000      -1.52467000      -6.13392458      -7.00250951      -1.30818111
B        2.31673000       1.42955000       3.77944000      -1.85652800      -2.14982900       3.21956500      -1.85092278      -1.95080045       3.29619874
B        3.17088000       0.01260000       8.16689000      -2.14308300      -0.12737100      -3.63430700      -2.09105413       0.14429815      -3.46865904
B        2.48887000       2.23189000       2.44876000      -1.30373000       3.96631200      -0.94871100      -0.91396684       3.67924849      -1.24914212
B        3.55016000       3.21990000       0.17024000       2.13469500      -3.52588700       0.23974700       2.15355957      -3.59983074       0.38885130
B        3.12966000       3.07291000       4.24572000      -6.99085300       0.34377600      -0.16579100      -6.82676449       0.09369175      -0.16410342
B        2.38358000       5.95301000       6.34325000       2.25901800      -8.76611800      -6.31465800       2.12218301      -9.05893251      -6.43408695
B        4.46260000       2.62992000       4.23823000       7.08507900      -1.75449200       0.40993300       6.95517675      -1.82219961       0.34395502
B        7.51183000       3.59374000       3.85724000       1.49621300      -1.20378300       3.39561400       1.49268996      -1.00255468       3.22329370
Si       0.50050000       1.66927000       5.10425000      -1.02554400      -2.67263500       2.61432900      -0.78542165      -2.98063356       2.55018108
Si       0.41923000       4.50138000       8.15701000       0.82744200      -0.47721100      -2.57541600       1.10294708      -0.44027908      -2.75412475
Si       2.90131000       4.25049000       1.93860000       2.71957100       0.04497600      -0.88170100       2.69280424       0.00118748      -1.02822571
Si       3.74353000       6.85388000       5.19884000      -1.20766000       1.80214700      -2.20114300      -1.08209363       1.94499286      -2.07278609
Si       3.54209000       6.47938000       8.21357000      -0.45014500      -1.75854100       4.24377300      -0.57073576      -2.01585447       4.42101956
Si       4.55252000       1.74669000       6.40118000       0.28733400       0.20348600      -1.69136000       0.28915006       0.22781709      -1.66134252
Si       5.87020000       3.30923000       5.41310000       1.93974000       0.55942400      -1.14043100       1.68537083       0.82720015      -1.25241631
Si       6.68392000       0.09389000       2.07850000      -2.78148600      -1.30329400       2.70552900      -2.55936589      -1.24015192       2.86594785
Si       7.30980000       7.36953000       0.08595000       4.18267400      -0.22507900      -1.67891000       4.42943861      -0.36938160      -1.74823727
Si       8.41387000       7.50606000       2.97540000       5.08859000       1.78741200      -0.88875800       5.02963768       1.89629179      -0.91140871
54
Lattice="8.579999685 0.0 0.0 0.0 8.579999685 0.0 0.0 0.0 8.5799996" Properties=species:S:1:pos:R:3:REF_forces:R:3:MACE_forces:R:3 config_type=Fe34B10Si10 REF_energy=-359.84864784 MACE_energy=-360.46817900184556 pbc="T T T"
Fe       0.39531000       2.37288000       0.87042000       3.27925500       2.43832800      -1.60261100       3.16832020       2.61122179      -1.70749126
Fe       0.75383000       1.65209000       3.11094000       1.30783500      -0.34615400      -0.09267000       1.38235742      -0.68933940       0.04859696
Fe       1.33201000       3.79282000       7.26231000      -2.40668100      -1.18131200       0.32245500      -2.54459264      -1.19645449       0.18639260
Fe       0.64436000       4.41396000       2.97573000       2.42004200      -2.26182600       0.38963900       2.46849578      -2.06233722       0.21424266
Fe       0.14751000       6.42079000       3.51005000      -3.07002100       1.32407200      -2.30638400      -3.18296571       1.34469102      -2.49435174