54
Lattice="8.579999685 0.0 0.0 0.0 8.579999685 0.0 0.0 0.0 8.5799996" Properties=species:S:1:pos:R:3:REF_forces:R:3:MACE_forces:R:3 config_type=Fe34B10Si10 REF_energy=-352.89092233 MACE_energy=-353.14993011515134 pbc="T T T"
Fe       1.46495000       0.71583000       1.12880000       3.73230100      -3.41607500      -3.76209700       3.68025347      -3.43783751      -3.52371081
Fe       0.56244000       2.07917000       1.96452000      -3.31290700       4.06628900       2.54508600      -3.26910673       3.93299748       2.27626811
Fe       0.86636000       2.12990000       5.00906000     -10.85567700      -2.87102900      12.20968700     -10.88346856      -2.94339460      12.19210914
Fe       0.24697000       2.61233000       7.83061000      -0.37811800      -2.03816900      -0.08744800      -0.40565053      -1.92514987       0.06844879
Fe       0.35437000       4.66395000       8.16447000      -1.30300600       1.62250000       0.84662400      -1.34860358       1.67457765       0.80281857
Fe       0.83543000       8.00840000       3.01492000       5.54921000      -2.55787300       0.52513800       5.69426473      -2.53092347       0.41775526
Fe       2.03952000       7.84431000       6.63062000      -4.28706100       1.82495200      -1.68802900      -4.08987966       1.97712031      -1.64766338
Fe       3.34318000       0.11090000       2.96052000      -0.46571400      -0.35056300       0.37864800      -0.50332329      -0.22148764       0.45998805
Fe       3.26317000       2.11539000       1.48699000      -3.47884800      -0.03222100       0.61542300      -3.36928168      -0.27457143       0.20529499
Fe       4.14313000       2.75755000       3.31065000      -0.71378000      -2.73118300       1.93004800      -0.62298630      -2.44740674       1.91942568
Fe       2.55051000       2.67374000       7.19710000      -2.55215900      -0.93589000       1.77261600      -2.30321395      -1.09007105       1.71789173
Fe       3.61327000       2.86500000       5.46497000       1.55763200       0.20514300      -0.56676300       1.48918627       0.28142368      -0.32678241
Fe       2.62400000       4.72550000       1.39174000      -1.08585200      -1.19598700       0.59645400      -1.37991831      -0.95413963       0.70836264
Fe       2.20317000       5.21693000       3.87451000      -3.92870900      -4.38103900      -4.92199500      -3.90108326      -4.34948001      -5.00795384
Fe       3.93082000       4.37819000       8.08226000       1.07616800       0.44807800      -0.99700400       0.97393526       0.28384207      -0.97649920
Fe       2.44961000       7.01753000       1.08943000       0.32119000      -1.55635000       3.27006500       0.41332759      -1.59725347       3.29015924
Fe       3.02500000       6.15780000       5.08193000      -1.08486800       1.64126100       3.95415400      -0.49949649       1.68114949       4.07452074
Fe       5.77712000       0.44616000       0.16142000      -2.43333700       0.07175000       4.13474700      -2.44105293       0.42382483       4.21127063
Fe       5.66964000       0.14892000       2.95259000      -3.67617900       1.90971100       0.12919700      -3.70369830       1.62726175       0.32108822
Fe       5.39484000       2.66317000       1.55162000       4.08183700      -3.39937100       3.88213200       4.05611453      -3.68459319       4.06532845
Fe       5.91309000       3.40423000       8.31953000       8.90196200       5.48305700      -2.72562400       8.67547468       5.38271645      -2.66525231
Fe       4.96126000       4.63305000       3.41410000      -3.60269200      -2.00302700       2.25051900      -3.73302946      -2.21843367       2.44862917
Fe       5.11347000       6.81217000       1.78872000      -0.87770500       0.06714300      -1.61156800      -0.71853411       0.06684589      -1.59253701
Fe       5.00950000       6.45991000       8.24507000      -2.30619500      -0.19808200      -1.52355700      -2.32347293       0.01747542      -1.71674149
Fe       4.64263000       7.71190000       5.75084000       2.50156800       4.23919200      -1.55456800       2.53829849       4.33088753      -1.61140602
Fe       7.32285000       0.33022000       5.03535000      -0.99210900      -0.59745100       4.73628300      -1.01190150      -0.34692467       4.78293089
Fe       6.75330000       1.32958000       7.05071000       0.53851300       2.01290400       0.36400700       0.53901669       1.83678365       0.35013931
Fe       6.82686000       2.53028000       3.66692000      -0.08907100      -0.12987400      -0.26318300      -0.02746424      -0.18470560      -0.24019105
Fe       6.83617000       5.56618000       0.59386000       1.74434500       1.47371700      -3.32847200       1.84419464       1.66755164      -3.50700364
Fe       8.27091000       4.29855000       2.87718000       3.23308900       0.33980500       1.37352500       3.18252546       0.18114838       1.31110223
Fe       6.58774000       4.90718000       4.97515000      -1.87594500       0.58060600      -0.05143700      -2.13066108       0.63198176      -0.39661714
Fe       6.86773000       6.79187000       3.27473000       1.52763600      -2.76254700       0.67579100       1.39126724      -2.46649330       0.35524402
Fe       8.09083000       8.29691000       0.84396000      -4.18921500      -1.95965200       9.56442300      -4.11261135      -2.30689705       9.63805891
Fe       6.62133000       7.67903000       7.47205000      -3.65417600       1.51975600      -3.32990400      -3.94282010       1.22479384      -3.47578831
B        3.45077000       6.81738000       6.75435000       2.04131500      -2.79808300       3.80923700       1.92821273      -2.77347262       3.98639606
B        4.67436000       1.10514000       4.73414000       0.75036200       0.95391600      -0.52852700       0.82904043       0.91692186      -0.45640751
B        6.18153000       2.20088000       5.47737000      -4.49435700      -3.20609500      -2.27763700      -4.72440724      -3.13590851      -2.51083971
B        5.08133000       4.10197000       6.35983000       0.35152900       0.25548900      -0.65354500       0.54176442       0.27843261      -0.57442941
B        4.48663000       4.29393000       1.40792000      -0.27448100       1.04603100       0.21283300      -0.26212051       1.24091872       0.14477323
B        4.96286000       5.88068000       6.14703000       0.60492000      -1.85032800       0.29314600       0.57231761      -1.92932511       0.13130745
B        8.17242000       5.65216000       5.55863000       1.00443800       0.65677900      -0.69824300       1.06764605       0.66333435      -0.31714063
B        7.98743000       6.92663000       6.60530000       5.86774900       2.58695800      -4.05103700       5.82690829       2.38192809      -3.64588694
B        7.10769000       5.72812000       6.91109000      -2.33709700      -3.34606800       1.34633400      -2.23174629      -3.42533943       1.36995438
B        7.81665000       6.81498000       8.33858000       5.04350100      -2.41043400       0.97359300       5.12884767      -2.43315029       0.69715854
Si       0.06983000       0.14925000       7.74742000       4.12649000       2.60901100      -8.87608100       3.96946492       2.63818825      -8.85058276
Si       1.93337000       2.41223000       3.74634000      10.14534600       2.98113100     -12.18526000      10.22121404       3.06398699     -12.00484670
Si       0.75978000       6.02813000       1.69309000      -4.13401100      -0.74920300       1.02787300      -4.11099903      -0.87749508       0.98029030
Si       2.22023000       5.10313000       7.16329000      -1.58663400       1.19675500      -1.89967800      -1.75804745       1.12411058      -1.92449542
Si       3.27754000       8.17117000       8.35443000       4.04667900       4.58101600      -2.24829100       3.88751274       4.53008166      -2.42761747
Si       4.48145000       2.18337000       8.34202000      -5.72220500      -5.96162700      -4.99603400      -5.49615653      -5.80963959      -5.18217983
Si       6.36439000       4.54151000       2.12641000       2.28764700      -2.33178900       1.39384200       2.58080096      -2.21854386       1.29757836
Si       4.52267000       6.51460000       3.75633000       0.42177200       5.22743800       1.25328700       0.13037420       5.32673646       1.35183244
Si       7.68278000       0.22257000       3.11016000      -0.17295300       4.89916800      -3.86478000      -0.25781999       4.81100617      -3.96419263
Si       7.35363000       3.38410000       6.13231000       4.40786200       1.27045000       2.62604800       4.40059226       1.38460987       2.97064011
54
Lattice="8.579999685 0.0 0.0 0.0 8.579999685 0.0 0.0 0.0 8.5799996" Properties=species:S:1:pos:R:3:REF_forces:R:3:MACE_forces:R:3 config_type=Fe34B10Si10 REF_energy=-354.71875992 MACE_energy=-355.2666074532494 pbc="T T T"
Fe       0.43313000       1.19321000       2.96848000       1.47291300       2.99028000       0.61180900       1.61869044       2.98224418       0.37140154
Fe       0.91365000       1.12516000       8.09995000       2.76260400      -2.00335600       1.20968300       2.45564034      -2.00217639       1.06338090
Fe       1.17142000       2.67870000       5.23446000      -1.90323000       6.04651700       0.58026800      -1.66307493       6.26959286       0.60272594
Fe       0.60772000       3.85484000       0.87278000       2.66909500       4.89444800       4.53699300       2.63971815       5.12699201       4.21235012
Fe       1.41565000       3.44858000       3.01161000      -0.29549500       2.03729500      -0.74017400      -0.20795798       1.89383680      -0.71491654
Fe       0.04226000       2.91249000       8.09734000      -3.39897200      -2.84207300      -2.69442200      -2.93206025      -2.83112273      -2.39756587
Fe       1.33282000       7.09057000       5.22634000      -0.45239700      -1.35392500       0.92503500      -0.30067697      -1.49052411       0.86943577
Fe       2.06045000       7.92051000       0.98063000      -3.11321000      -0.30108300      -2.49280600      -3.25725973      -0.48611511      -2.34657686
Fe       2.03627000       8.24295000       3.50701000      -1.42216600       4.38122900       0.88517600      -1.57762725       4.19218204       0.57634649
Fe       0.01253000       8.02686000       7.00667000       2.58679700       0.98610200     -11.80201700       2.52267849       0.83445086     -11.92020718
Fe       3.00353000       0.57289000       6.13981000      -1.03922300       0.18357300       0.93137300      -0.73722218       0.02644776       1.07747650
Fe       3.69949000       2.65196000       7.51811000       2.76433000      -4.34399200      -3.80269000       2.58337657      -4.16342259      -3.63779295
Fe       2.94478000       6.44154000       3.03987000       7.21319500      -3.66655800      -1.17614100       7.12547167      -3.47494937      -1.01729817
Fe       2.94309000       5.75189000       6.64956000      -6.24071800      -0.74678300       3.86021800      -6.49663082      -0.72100439       3.94633829
Fe       3.71160000       8.39321000       1.86324000       2.24845700      -0.43546600       0.28887200       2.40157273      -0.24411079       0.54062415
Fe       4.07810000       8.43915000       4.32840000       2.88035800       1.28304800      -0.49181300       2.91917803       1.41059567      -0.79251783
Fe       5.57499000       0.73262000       6.31633000      -3.12774100      -1.68249800      -0.98058200      -2.84687898      -1.69388410      -0.99734883
Fe       4.70712000       1.94493000       1.65492000      -2.04675700       4.97917500      -3.67899600      -2.08213390       4.86888845      -3.46255318
Fe       4.73401000       4.18392000       1.24748000       0.71501700       1.80608500      -0.06999200       0.69037361       1.93283830      -0.12346995
Fe       4.56687000       4.22266000       4.39618000       0.73801700       3.32591500      -2.10569900       0.54331711       3.39970366      -2.24261671
Fe       4.51224000       4.61167000       7.05684000       2.53211900      -0.41024200       0.53825400       2.96752497      -0.69845814       0.60605422
Fe       6.32808000       6.81945000       4.24288000      -3.20445400      -0.33519400      -1.28892300      -2.81527509      -0.23435381      -1.05905899
Fe       6.22240000       7.17309000       0.16230000      -3.30904600      -2.75215800       1.90373500      -3.48084377      -2.98851106       2.00695446
Fe       4.54224000       7.44382000       7.03838000       0.17895600      -5.02037800      -8.74618400       0.19577673      -5.26311257      -8.75811843
Fe       4.73272000       8.55832000       8.35561000      -0.10588400       8.96287400       6.54083400      -0.26475129       9.29175626       6.19930726
Fe       7.67285000       2.82429000       2.17742000      -2.12886900      -0.76272600      -2.06587500      -2.12248611      -0.74451246      -1.90259378
Fe       6.74071000       1.77406000       4.33655000       0.47479500       0.50025500      -0.42349800       0.11891928       0.46593736      -0.50061431
Fe       7.16362000       1.61896000       6.68131000       5.11373900       1.83737400       0.70818800       4.78982605       1.61690013       0.61687853
Fe       6.73653000       4.13840000       7.84564000       0.19062300       0.32905600       3.59274800       0.31170126       0.44923019       3.62861852
Fe       6.61248000       5.35948000       2.44590000       0.96755600      -0.77403900      -0.47053600       0.86617144      -0.75227949      -0.43305668
Fe       8.39074000       4.95678000       4.82580000       0.50677700       3.21370700       1.22596300       0.57322693       3.17391338       1.07854589
Fe       6.62275000       6.29700000       6.29237000       0.91106900      -0.58785400       1.74696000       0.85219262      -0.47552104       1.53902915
Fe       8.00875000       8.14674000       2.12563000      -1.25903800      -1.94608200      -3.37077000      -0.87202064      -1.93834963      -3.52934410
Fe       7.96861000       8.10559000       4.08816000       1.24434400       0.03207600       4.40361200       0.63272500      -0.01870225       4.62141112
B        3.14587000       1.61638000       2.59818000      -3.96044800      -1.57388800      -2.24367700      -4.09189505      -1.54078452      -2.21111897
B        4.07212000       1.93087000       3.78701000       0.55534200       0.12762300      -3.25123200       0.40747469       0.04042401      -3.29047722
B        2.24412000       1.90783000       4.05913000      -1.80380000      -9.70850100      -5.48536600      -1.96462241      -9.96973216      -5.57463474
B        2.90130000       3.06657000       4.45062000       2.48509300       7.60479000      -1.50334300       2.79553500       7.28044857      -1.42683827
B        2.82587000       3.80138000       5.80651000       0.21675600       2.27927400       3.92227300       0.22606475       2.14062461       3.92234781
B        2.60929000       5.04297000       1.66311000       0.12617300      -0.77075900      -0.46531300       0.00343334      -0.96423148      -0.48885971
B        2.47198000       4.95014000       4.32601000      -0.76752800      -1.31946700       0.35153300      -0.88095497      -1.19080929       0.41575586
B        2.73354000       7.81887000       7.66829000      -1.47869400      -0.15377200       0.00458000      -1.47557168      -0.14751764       0.09712667
B        5.68071000       2.28134000       7.79544000      -0.95924500       0.41857400       1.11780500      -1.04604045       0.40069354       1.10413692
B        7.77536000       3.70665000       3.76574000      -0.44877700      -1.48394500      -0.38974400      -0.47552533      -1.41843061      -0.18949097
Si       0.79518000       0.92195000       5.77957000      -1.66645900      -4.94136200      -1.10925300      -1.63713837      -4.99169490      -0.94784627
Si       0.88055000       4.20706000       6.73551000       1.15626000       3.58432200      -0.32349000       1.13686535       3.65268814      -0.32024495
Si       1.15025000       6.44729000       2.43826000      -7.77651300      -1.83655100      -1.54918700      -7.80362268      -1.71996057      -1.74748413
Si       2.82820000       3.29548000       0.50208000      -4.05499500       1.58525200       5.32597100      -4.11330102       1.41827568       5.27812030
Si       4.14031000       6.38272000       0.30005000      -2.16949800      -2.44928300       2.57761000      -2.31768456      -2.31813524       2.45035392
Si       3.68345000       6.43010000       5.01209000       3.98893100       0.98565200      -2.13453700       3.92537868       1.21289297      -2.08068089
Si       5.73751000       0.59059000       2.53265000       5.08228400      -4.90021500       2.23852200       5.14540168      -4.91875539       2.47985953
Si       4.51163000       2.47994000       5.36819000       2.60737700      -2.86786400       7.12589500       2.81483245      -2.58848392       7.27633462
Si       6.43436000       3.75222000       5.86206000       1.38008400       0.66155200      -3.64612400       1.51140429       0.66050799      -3.75741450
Si       8.06432000       7.52318000       8.55473000       2.36409700      -3.06603600      11.34847700       2.68878478      -2.75241965      11.28982649
18
Lattice="6.5 0.0 0.0 0.0 6.5 0.0 0.0 0.0 6.5" Properties=species:S:1:pos:R:3:REF_forces:R:3:MACE_forces:R:3 config_type=Fe12B3Si3 REF_energy=-113.87843945 MACE_energy=-112.35052327295546 pbc="T T T"
Fe       5.40234000       5.43492000       1.53729000      -1.39532100       2.04028400       0.71142300      -1.18056463       2.01129565       0.77747132
Fe       2.09750000       2.10361000       0.54730000       2.35673700      -0.33103000       1.27254800       2.60513346      -0.21417039       1.52871767
Fe       2.84360000       1.73250000       3.81271000       2.28004000      -1.18251600      -0.27344700       2.20637134      -1.00993702      -0.33446266
Fe       0.77541000       4.93717000       1.04317000       1.56096300      -3.83372900       1.76362000       1.45457726      -3.59318728       1.56360727
Fe       0.07665000       3.70431000       3.74351000      -0.75952900      -0.39175400      -2.23189700      -1.01380627      -0.50292955      -2.30948046
Fe       4.77171000       3.58949000       4.78220000      -1.99219600      -4.62409700       0.48420500      -1.74170664      -4.54921541       0.39895513
Fe       4.12430000       1.49867000       1.46476000       0.29771700      -2.38794700       0.28396300       0.29483069      -2.69741495       0.15445925
Fe       0.95387000       5.17746000       5.28728000      -0.57085000      -0.50160400      -1.80733600      -0.85082759      -0.68070555      -1.32388265
Fe       1.93602000       3.09888000       2.36598000      -0.08855100       0.43128300      -0.27209000      -0.23273925       0.49852803      -0.47584440
Fe       5.69037000       1.28357000       4.20026000      -0.40866000      -0.49067900       0.18976600      -0.78470349      -0.36608761       0.25202718
Fe       1.94321000       2.86141000       5.39871000      -0.55906500       0.73218900      -1.80086600      -0.56014010       0.88932797      -2.14787295
Fe       4.33122000       5.38124000       5.25469000      -0.73272900       4.56545400       1.52017900      -0.63902297       4.42373085       1.57675234
B        0.37598000       1.64060000       1.21420000      -3.21263000       2.85095800       0.76078000      -3.10035780       2.81305684       0.90899805
B        1.88110000       4.04794000       3.96741000       2.48956600       2.45119300      -0.32261600       2.58969183       2.38945487      -0.31955925
B        3.63878000       0.94242000       5.41981000      -0.01444500       0.67937600       0.95779200       0.09355965       0.78706846       1.06184548
Si       1.19380000       0.26963000       0.19686000       0.54051800       0.24528300      -1.93219100       0.65289403       0.04905424      -1.88164203
Si       4.57825000       3.47658000       1.16117000       0.15934200       1.26766700      -0.81102600       0.23850188       1.41217858      -0.75693978
Si       1.09558000       0.76720000       2.75124000       0.04909300      -1.52033200       1.50719200      -0.03169138      -1.66004774       1.32685050
54
Lattice="8.579999685 0.0 0.0 0.0 8.579999685 0.0 0.0 0.0 8.5799996" Properties=species:S:1:pos:R:3:REF_forces:R:3:MACE_forces:R:3 config_type=Fe34B10Si10 REF_energy=-356.0869274 MACE_energy=-356.962360144287 pbc="T T T"
Fe       0.92877000       1.08311000       2.12831000      -0.53214900      -1.15432400       0.53007800      -0.67737459      -1.18649453       0.40940520
Fe       1.12794000       0.45096000       7.37327000      -2.86345100       2.18226700       1.45805300      -2.72992566       1.97497236       1.40604303
Fe       0.91289000       3.61082000       1.96264000      -1.66570100       0.50807500      -4.76654600      -1.59557194       0.26248092      -4.69087311
Fe       0.97242000       3.25012000       3.83975000      -0.85629000      -1.23507100      -0.91491200      -1.18056564      -1.12332843      -0.41317112
Fe       1.43574000       3.84332000       5.84621000      -1.94378300      -0.72872400       4.94145300      -2.06172174      -0.57427372       4.83151295
Fe       0.45897000       5.99881000       1.32384000       1.86679900       1.45939200      -0.33976700       1.69979295       1.47721937      -0.14346082
Fe       0.05714000       6.25044000       6.01250000       0.66851500      -0.88142700       1.67028200       0.60118419      -0.74707915       1.65469768
Fe       1.87526000       7.05991000       7.27744000      -5.90957000       6.81146600       5.95768600      -5.67210262       7.04874284       5.82465529
Fe       4.21220000       0.80536000       3.81626000       0.44958900      -1.97725700       0.54591300       0.53384404      -1.85306575       0.46777934
Fe       2.64196000       0.75311000       5.88605000       0.80305000      -0.92688600      -1.50973400       0.49291695      -1.06329856      -1.45362481
Fe       2.51735000       4.27963000       7.86001000      -0.17185400       2.88247300       0.00075600      -0.15718799       2.98599893       0.03270610
Fe       2.46175000       4.76211000       4.38544000       2.27245000       6.36429500      -0.60000700       2.34048411       6.37045159      -0.58299965
Fe       3.99132000       4.46692000       6.09268000      -0.21521200      -1.96607600      -0.25853400      -0.25638969      -2.19382884      -0.18322297
Fe       4.03283000       6.20484000       2.50717000       0.32509400      -1.83048700       1.07686200       0.45478493      -1.74719401       1.06016582
Fe       2.62183000       8.12097000       1.25125000      -5.45108600      -1.04608100      -0.88869000      -5.52520509      -1.11076342      -0.68660508
Fe       2.34208000       7.49949000       3.33705000      -1.45221900       0.10179900       1.96325000      -1.29852179       0.10418238       1.64099839
Fe       4.67554000       0.98699000       8.35162000       1.97529500       0.95938300       0.07305200       1.73035158       0.91087584       0.29291829
Fe       4.68615000       2.28426000       1.60336000       6.03713100       4.39249100       1.56082500       6.22566483       4.34885981       1.06252657
Fe       4.95897000       4.28949000       0.91503000       1.24258400       3.77490300      -1.07876200       0.80785834       3.60186056      -1.18704053
Fe       5.62605000       3.84953000       3.25301000      -4.56775200       3.43217100       2.09526400      -4.62076733       3.47348159       1.89610175
Fe       5.63153000       5.70233000       4.67966000       0.04558900       0.36352900      -0.74034800       0.09470846      -0.02478353      -0.59003242
Fe       5.00954000       6.14620000       6.89198000       4.51113600      -2.60361300       1.43664400       4.52518790      -2.46500467       1.33221055
Fe       5.34723000       7.32984000       0.56425000       3.41130600      -7.55812200      -7.44238600       3.33261460      -7.07956750      -7.11691439
Fe       4.57141000       8.20633000       1.67615000      -2.51651100       6.57056000       9.11650700      -2.50241378       6.04177081       8.81411018
Fe       5.67084000       7.83697000       6.02451000      -0.02983000       3.57151200       0.33120700      -0.06455622       3.65550218       0.40330758
Fe       7.65837000       1.05332000       0.64336000       1.95813700       2.93603900      -3.62028800       1.85066606       2.80779959      -3.44194404
Fe       7.23579000       1.49494000       3.62009000       0.88838800      -1.50203300       3.00240400       1.04214246      -1.45469931       2.97793472
Fe       6.96409000       1.59543000       6.70415000       0.40175100      -2.57633900      -0.54943900       0.46220721      -2.45488952      -0.52451568
Fe       6.97946000       3.05325000       2.27831000       3.01329100      -2.85779700      -7.80747400       2.61004893      -2.95674875      -7.34097937
Fe       7.05854000       3.62734000       7.13255000       0.94483300       2.42104600       2.56329500       0.99730902       2.36223902       2.38257829
Fe       7.47490000       4.49325000       0.92243000      -3.13561000       0.06366500       0.11142200      -2.81927064       0.42714108      -0.13740911
Fe       7.76499000       5.40883000       4.05655000       3.42051700      -2.49950500       1.10150300       3.52209694      -2.64377903       1.14389019
Fe       6.91686000       6.16423000       2.38917000      -4.34160700       0.52717700      -3.24358900      -4.30940313       0.79736715      -3.24662660
Fe       7.31773000       7.39473000       4.73130000      -1.41907300       3.06948200       1.38572900      -1.42233487       2.96575042       1.34868809
B        1.63947000       5.44017000       2.85377000      -1.37965300       1.67099600      -0.34434500      -1.48571492       1.71682013      -0.57698369
B        3.47444000       1.29905000       1.69513000      -6.04542900      -7.46227000      -1.52467000      -6.08005118      -6.95446448      -1.24621340
B        2.31673000       1.42955000       3.77944000      -1.85652800      -2.14982900       3.21956500      -1.76307196      -1.97667554       3.36772628
B        3.17088000       0.01260000       8.16689000      -2.14308300      -0.12737100      -3.63430700      -2.05947387       0.13584006      -3.50633318
B        2.48887000       2.23189000       2.44876000      -1.30373000       3.96631200      -0.94871100      -0.90631267       3.77615039      -1.25552623
B        3.55016000       3.21990000       0.17024000       2.13469500      -3.52588700       0.23974700       2.10654644      -3.53461960       0.38061727
B        3.12966000       3.07291000       4.24572000      -6.99085300       0.34377600      -0.16579100      -6.94088497       0.13067158      -0.18743441
B        2.38358000       5.95301000       6.34325000       2.25901800      -8.76611800      -6.31465800       2.12505951      -9.03559951      -6.40451672
B        4.46260000       2.62992000       4.23823000       7.08507900      -1.75449200       0.40993300       7.01776298      -1.87730434       0.38144009
B        7.51183000       3.59374000       3.85724000       1.49621300      -1.20378300       3.39561400       1.52139956      -1.03507909       3.22918966
Si       0.50050000       1.66927000       5.10425000      -1.02554400      -2.67263500       2.61432900      -0.79087434      -2.96451063       2.60102301
Si       0.41923000       4.50138000       8.15701000       0.82744200      -0.47721100      -2.57541600       1.09309241      -0.41991272      -2.76682735
Si       2.90131000       4.25049000       1.93860000       2.71957100       0.04497600      -0.88170100       2.73701343      -0.00426043      -1.05275502
Si       3.74353000       6.85388000       5.19884000      -1.20766000       1.80214700      -2.20114300      -1.07069105       1.92099964      -2.09547703
Si       3.54209000       6.47938000       8.21357000      -0.45014500      -1.75854100       4.24377300      -0.59801054      -2.04162447       4.39191115
Si       4.55252000       1.74669000       6.40118000       0.28733400       0.20348600      -1.69136000       0.25188855       0.18139510      -1.60301007
Si       5.87020000       3.30923000       5.41310000       1.93974000       0.55942400      -1.14043100       1.66697560       0.82695165      -1.15288347
Si       6.68392000       0.09389000       2.07850000      -2.78148600      -1.30329400       2.70552900      -2.54233173      -1.23997359       2.82827225
Si       7.30980000       7.36953000       0.08595000       4.18267400      -0.22507900      -1.67891000       4.30200077      -0.42022401      -1.72410536
Si       8.41387000       7.50606000       2.97540000       5.08859000       1.78741200      -0.88875800       4.98512719       1.87752216      -0.85092409
54
Lattice="8.579999685 0.0 0.0 0.0 8.579999685 0.0 0.0 0.0 8.5799996" Properties=species:S:1:pos:R:3:REF_forces:R:3:MACE_forces:R:3 config_type=Fe34B10Si10 REF_energy=-359.84864784 MACE_energy=-360.37175441632473 pbc="T T T"
Fe       0.39531000       2.37288000       0.87042000       3.27925500       2.43832800      -1.60261100       3.16742599       2.68549166      -1.75355521
Fe       0.75383000       1.65209000       3.11094000       1.30783500      -0.34615400      -0.09267000       1.31385524      -0.79971170       0.04825791
Fe       1.33201000       3.79282000       7.26231000      -2.40668100      -1.18131200       0.32245500      -2.47226478      -1.16416273       0.22137524
Fe       0.64436000       4.41396000       2.97573000       2.42004200      -2.26182600       0.38963900       2.47800815      -2.05400771       0.23200012
Fe       0.14751000       6.42079000       3.51005000      -3.07002100       1.32407200      -2.30638400      -3.13110555       1.32102049      -2.46157708