54
Lattice="8.579999685 0.0 0.0 0.0 8.579999685 0.0 0.0 0.0 8.5799996" Properties=species:S:1:pos:R:3:REF_forces:R:3:MACE_forces:R:3 config_type=Fe34B10Si10 REF_energy=-352.89092233 MACE_energy=-353.28771996804403 pbc="T T T"
Fe       1.46495000       0.71583000       1.12880000       3.73230100      -3.41607500      -3.76209700       3.72724091      -3.47179076      -3.63318697
Fe       0.56244000       2.07917000       1.96452000      -3.31290700       4.06628900       2.54508600      -3.36084830       4.09677095       2.38976480
Fe       0.86636000       2.12990000       5.00906000     -10.85567700      -2.87102900      12.20968700     -10.91754383      -2.93521035      12.19460443
Fe       0.24697000       2.61233000       7.83061000      -0.37811800      -2.03816900      -0.08744800      -0.33935412      -2.08672159       0.11114900
Fe       0.35437000       4.66395000       8.16447000      -1.30300600       1.62250000       0.84662400      -1.36714913       1.71457843       0.81744768
Fe       0.83543000       8.00840000       3.01492000       5.54921000      -2.55787300       0.52513800       5.57101896      -2.64641233       0.45229088
Fe       2.03952000       7.84431000       6.63062000      -4.28706100       1.82495200      -1.68802900      -4.02472986       2.03805678      -1.69522830
Fe       3.34318000       0.11090000       2.96052000      -0.46571400      -0.35056300       0.37864800      -0.48261773      -0.18133942       0.47862741
Fe       3.26317000       2.11539000       1.48699000      -3.47884800      -0.03222100       0.61542300      -3.31291330      -0.27408208       0.21947470
Fe       4.14313000       2.75755000       3.31065000      -0.71378000      -2.73118300       1.93004800      -0.68958241      -2.46174314       1.89320296
Fe       2.55051000       2.67374000       7.19710000      -2.55215900      -0.93589000       1.77261600      -2.33261330      -1.03470606       1.70897510
Fe       3.61327000       2.86500000       5.46497000       1.55763200       0.20514300      -0.56676300       1.46109894       0.32926715      -0.27555931
Fe       2.62400000       4.72550000       1.39174000      -1.08585200      -1.19598700       0.59645400      -1.36243341      -0.93944269       0.70143973
Fe       2.20317000       5.21693000       3.87451000      -3.92870900      -4.38103900      -4.92199500      -3.84005748      -4.33140540      -4.99864587
Fe       3.93082000       4.37819000       8.08226000       1.07616800       0.44807800      -0.99700400       1.00982085       0.26081087      -1.05180464
Fe       2.44961000       7.01753000       1.08943000       0.32119000      -1.55635000       3.27006500       0.45027464      -1.63331469       3.33664491
Fe       3.02500000       6.15780000       5.08193000      -1.08486800       1.64126100       3.95415400      -0.42109057       1.57700450       3.91006283
Fe       5.77712000       0.44616000       0.16142000      -2.43333700       0.07175000       4.13474700      -2.41680783       0.43240090       4.18680443
Fe       5.66964000       0.14892000       2.95259000      -3.67617900       1.90971100       0.12919700      -3.70195462       1.66021170       0.28970186
Fe       5.39484000       2.66317000       1.55162000       4.08183700      -3.39937100       3.88213200       3.97720723      -3.75691823       4.11519379
Fe       5.91309000       3.40423000       8.31953000       8.90196200       5.48305700      -2.72562400       8.69978135       5.48198598      -2.75528311
Fe       4.96126000       4.63305000       3.41410000      -3.60269200      -2.00302700       2.25051900      -3.87257990      -2.28016020       2.40213503
Fe       5.11347000       6.81217000       1.78872000      -0.87770500       0.06714300      -1.61156800      -0.68865576       0.12107094      -1.59942378
Fe       5.00950000       6.45991000       8.24507000      -2.30619500      -0.19808200      -1.52355700      -2.20171774      -0.03303904      -1.69678573
Fe       4.64263000       7.71190000       5.75084000       2.50156800       4.23919200      -1.55456800       2.56536974       4.25112354      -1.62901681
Fe       7.32285000       0.33022000       5.03535000      -0.99210900      -0.59745100       4.73628300      -1.02057326      -0.38074265       4.73449013
Fe       6.75330000       1.32958000       7.05071000       0.53851300       2.01290400       0.36400700       0.48382611       1.87362077       0.32982850
Fe       6.82686000       2.53028000       3.66692000      -0.08907100      -0.12987400      -0.26318300       0.03152391      -0.19751184      -0.24239839
Fe       6.83617000       5.56618000       0.59386000       1.74434500       1.47371700      -3.32847200       1.81054317       1.83333469      -3.46454169
Fe       8.27091000       4.29855000       2.87718000       3.23308900       0.33980500       1.37352500       3.11535635       0.18513195       1.35371039
Fe       6.58774000       4.90718000       4.97515000      -1.87594500       0.58060600      -0.05143700      -2.06801445       0.54511482      -0.59199325
Fe       6.86773000       6.79187000       3.27473000       1.52763600      -2.76254700       0.67579100       1.46887761      -2.45922265       0.35390440
Fe       8.09083000       8.29691000       0.84396000      -4.18921500      -1.95965200       9.56442300      -4.27234008      -2.29518479       9.59763243
Fe       6.62133000       7.67903000       7.47205000      -3.65417600       1.51975600      -3.32990400      -3.97130817       1.31744043      -3.47051468
B        3.45077000       6.81738000       6.75435000       2.04131500      -2.79808300       3.80923700       1.91673865      -2.80152052       3.94398362
B        4.67436000       1.10514000       4.73414000       0.75036200       0.95391600      -0.52852700       0.81565656       0.89369775      -0.41595325
B        6.18153000       2.20088000       5.47737000      -4.49435700      -3.20609500      -2.27763700      -4.64940472      -3.16621281      -2.40956886
B        5.08133000       4.10197000       6.35983000       0.35152900       0.25548900      -0.65354500       0.51475481       0.36492361      -0.60827925
B        4.48663000       4.29393000       1.40792000      -0.27448100       1.04603100       0.21283300      -0.22043117       1.19617468       0.23587496
B        4.96286000       5.88068000       6.14703000       0.60492000      -1.85032800       0.29314600       0.48921120      -1.91301097       0.13565624
B        8.17242000       5.65216000       5.55863000       1.00443800       0.65677900      -0.69824300       1.01685307       0.78105405      -0.26979022
B        7.98743000       6.92663000       6.60530000       5.86774900       2.58695800      -4.05103700       5.76593893       2.30321853      -3.70853262
B        7.10769000       5.72812000       6.91109000      -2.33709700      -3.34606800       1.34633400      -2.11745385      -3.38411605       1.60471654
B        7.81665000       6.81498000       8.33858000       5.04350100      -2.41043400       0.97359300       5.06959504      -2.63205268       0.58186059
Si       0.06983000       0.14925000       7.74742000       4.12649000       2.60901100      -8.87608100       4.02184758       2.61261669      -8.77568117
Si       1.93337000       2.41223000       3.74634000      10.14534600       2.98113100     -12.18526000      10.23913238       3.06239566     -12.00994950
Si       0.75978000       6.02813000       1.69309000      -4.13401100      -0.74920300       1.02787300      -4.14213003      -0.83769674       0.97824966
Si       2.22023000       5.10313000       7.16329000      -1.58663400       1.19675500      -1.89967800      -1.64485300       1.15699832      -1.88359576
Si       3.27754000       8.17117000       8.35443000       4.04667900       4.58101600      -2.24829100       3.93027914       4.56910764      -2.39878064
Si       4.48145000       2.18337000       8.34202000      -5.72220500      -5.96162700      -4.99603400      -5.48694635      -5.95124076      -5.13725741
Si       6.36439000       4.54151000       2.12641000       2.28764700      -2.33178900       1.39384200       2.53528126      -2.13185296       1.32636643
Si       4.52267000       6.51460000       3.75633000       0.42177200       5.22743800       1.25328700       0.12062517       5.29917257       1.34471736
Si       7.68278000       0.22257000       3.11016000      -0.17295300       4.89916800      -3.86478000      -0.25791400       4.83300661      -3.94461511
Si       7.35363000       3.38410000       6.13231000       4.40786200       1.27045000       2.62604800       4.37616481       1.42636088       2.93787553
54
Lattice="8.579999685 0.0 0.0 0.0 8.579999685 0.0 0.0 0.0 8.5799996" Properties=species:S:1:pos:R:3:REF_forces:R:3:MACE_forces:R:3 config_type=Fe34B10Si10 REF_energy=-354.71875992 MACE_energy=-355.37080284878596 pbc="T T T"
Fe       0.43313000       1.19321000       2.96848000       1.47291300       2.99028000       0.61180900       1.45192260       2.90989892       0.33683694
Fe       0.91365000       1.12516000       8.09995000       2.76260400      -2.00335600       1.20968300       2.40956012      -1.94097979       1.06198110
Fe       1.17142000       2.67870000       5.23446000      -1.90323000       6.04651700       0.58026800      -1.73575112       6.13519417       0.40083244
Fe       0.60772000       3.85484000       0.87278000       2.66909500       4.89444800       4.53699300       2.57438190       5.04147103       4.18425886
Fe       1.41565000       3.44858000       3.01161000      -0.29549500       2.03729500      -0.74017400      -0.06556160       1.92715759      -0.66556479
Fe       0.04226000       2.91249000       8.09734000      -3.39897200      -2.84207300      -2.69442200      -2.80131363      -2.94284766      -2.41404612
Fe       1.33282000       7.09057000       5.22634000      -0.45239700      -1.35392500       0.92503500      -0.22853265      -1.50515780       0.96706467
Fe       2.06045000       7.92051000       0.98063000      -3.11321000      -0.30108300      -2.49280600      -3.20020004      -0.41493111      -2.44640414
Fe       2.03627000       8.24295000       3.50701000      -1.42216600       4.38122900       0.88517600      -1.49310391       4.11826451       0.64851001
Fe       0.01253000       8.02686000       7.00667000       2.58679700       0.98610200     -11.80201700       2.44694778       0.90102471     -11.87780823
Fe       3.00353000       0.57289000       6.13981000      -1.03922300       0.18357300       0.93137300      -0.78231764       0.12046377       1.00770056
Fe       3.69949000       2.65196000       7.51811000       2.76433000      -4.34399200      -3.80269000       2.60131434      -4.11391036      -3.67266502
Fe       2.94478000       6.44154000       3.03987000       7.21319500      -3.66655800      -1.17614100       7.00554479      -3.47079566      -1.01682425
Fe       2.94309000       5.75189000       6.64956000      -6.24071800      -0.74678300       3.86021800      -6.44757739      -0.64142626       3.91560755
Fe       3.71160000       8.39321000       1.86324000       2.24845700      -0.43546600       0.28887200       2.26855623      -0.14401792       0.69010080
Fe       4.07810000       8.43915000       4.32840000       2.88035800       1.28304800      -0.49181300       2.85523944       1.34952753      -0.75598550
Fe       5.57499000       0.73262000       6.31633000      -3.12774100      -1.68249800      -0.98058200      -2.82787913      -1.69512906      -0.91909327
Fe       4.70712000       1.94493000       1.65492000      -2.04675700       4.97917500      -3.67899600      -2.15365912       4.77859456      -3.44620634
Fe       4.73401000       4.18392000       1.24748000       0.71501700       1.80608500      -0.06999200       0.72076496       2.01734963      -0.10726331
Fe       4.56687000       4.22266000       4.39618000       0.73801700       3.32591500      -2.10569900       0.51827659       3.16645416      -2.18783601
Fe       4.51224000       4.61167000       7.05684000       2.53211900      -0.41024200       0.53825400       2.97002030      -0.75541875       0.48405645
Fe       6.32808000       6.81945000       4.24288000      -3.20445400      -0.33519400      -1.28892300      -2.79150692      -0.24058399      -1.09212969
Fe       6.22240000       7.17309000       0.16230000      -3.30904600      -2.75215800       1.90373500      -3.52348023      -3.00643828       2.06809622
Fe       4.54224000       7.44382000       7.03838000       0.17895600      -5.02037800      -8.74618400       0.28749260      -5.24372083      -8.89422214
Fe       4.73272000       8.55832000       8.35561000      -0.10588400       8.96287400       6.54083400      -0.23280679       9.41854532       6.19699994
Fe       7.67285000       2.82429000       2.17742000      -2.12886900      -0.76272600      -2.06587500      -2.07906441      -0.83067293      -1.98431065
Fe       6.74071000       1.77406000       4.33655000       0.47479500       0.50025500      -0.42349800       0.07726989       0.43097328      -0.46548311
Fe       7.16362000       1.61896000       6.68131000       5.11373900       1.83737400       0.70818800       4.75182808       1.66244620       0.64246227
Fe       6.73653000       4.13840000       7.84564000       0.19062300       0.32905600       3.59274800       0.14075915       0.48859813       3.63202511
Fe       6.61248000       5.35948000       2.44590000       0.96755600      -0.77403900      -0.47053600       0.84346346      -0.66512287      -0.49258846
Fe       8.39074000       4.95678000       4.82580000       0.50677700       3.21370700       1.22596300       0.61299850       3.11704365       1.08588617
Fe       6.62275000       6.29700000       6.29237000       0.91106900      -0.58785400       1.74696000       0.81246054      -0.47784291       1.60450241
Fe       8.00875000       8.14674000       2.12563000      -1.25903800      -1.94608200      -3.37077000      -0.87594863      -1.94537165      -3.40057474
Fe       7.96861000       8.10559000       4.08816000       1.24434400       0.03207600       4.40361200       0.70589036       0.02304420       4.52315203
B        3.14587000       1.61638000       2.59818000      -3.96044800      -1.57388800      -2.24367700      -3.97419718      -1.49523951      -2.04546024
B        4.07212000       1.93087000       3.78701000       0.55534200       0.12762300      -3.25123200       0.44321578       0.15914148      -3.18426795
B        2.24412000       1.90783000       4.05913000      -1.80380000      -9.70850100      -5.48536600      -1.84837314      -9.95064119      -5.59643272
B        2.90130000       3.06657000       4.45062000       2.48509300       7.60479000      -1.50334300       2.89101122       7.28392497      -1.53255453
B        2.82587000       3.80138000       5.80651000       0.21675600       2.27927400       3.92227300       0.31289728       2.12898281       3.87773846
B        2.60929000       5.04297000       1.66311000       0.12617300      -0.77075900      -0.46531300      -0.05471987      -0.77627580      -0.41115985
B        2.47198000       4.95014000       4.32601000      -0.76752800      -1.31946700       0.35153300      -0.81607666      -1.21406655       0.36729896
B        2.73354000       7.81887000       7.66829000      -1.47869400      -0.15377200       0.00458000      -1.52306122      -0.17108844       0.19992880
B        5.68071000       2.28134000       7.79544000      -0.95924500       0.41857400       1.11780500      -0.94640631       0.34814642       1.05337781
B        7.77536000       3.70665000       3.76574000      -0.44877700      -1.48394500      -0.38974400      -0.55236361      -1.39522776      -0.04918615
Si       0.79518000       0.92195000       5.77957000      -1.66645900      -4.94136200      -1.10925300      -1.62183477      -5.08392441      -0.94845843
Si       0.88055000       4.20706000       6.73551000       1.15626000       3.58432200      -0.32349000       1.10773075       3.75577236      -0.22267418
Si       1.15025000       6.44729000       2.43826000      -7.77651300      -1.83655100      -1.54918700      -7.88763530      -1.71775606      -1.71284210
Si       2.82820000       3.29548000       0.50208000      -4.05499500       1.58525200       5.32597100      -4.11683038       1.45663039       5.25963561
Si       4.14031000       6.38272000       0.30005000      -2.16949800      -2.44928300       2.57761000      -2.24097331      -2.47028335       2.53589851
Si       3.68345000       6.43010000       5.01209000       3.98893100       0.98565200      -2.13453700       3.84590479       1.17162551      -2.08897272
Si       5.73751000       0.59059000       2.53265000       5.08228400      -4.90021500       2.23852200       5.12310630      -4.90073006       2.49465092
Si       4.51163000       2.47994000       5.36819000       2.60737700      -2.86786400       7.12589500       2.76719011      -2.67443589       7.01679748
Si       6.43436000       3.75222000       5.86206000       1.38008400       0.66155200      -3.64612400       1.56079081       0.76921688      -3.75405266
Si       8.06432000       7.52318000       8.55473000       2.36409700      -3.06603600      11.34847700       2.71463633      -2.79545530      11.12966723
18
Lattice="6.5 0.0 0.0 0.0 6.5 0.0 0.0 0.0 6.5" Properties=species:S:1:pos:R:3:REF_forces:R:3:MACE_forces:R:3 config_type=Fe12B3Si3 REF_energy=-113.87843945 MACE_energy=-113.05989044162513 pbc="T T T"
Fe       5.40234000       5.43492000       1.53729000      -1.39532100       2.04028400       0.71142300      -1.06472068       1.90825194       0.69713289
Fe       2.09750000       2.10361000       0.54730000       2.35673700      -0.33103000       1.27254800       2.51317102      -0.07034610       1.18228095
Fe       2.84360000       1.73250000       3.81271000       2.28004000      -1.18251600      -0.27344700       2.18341465      -0.98856136      -0.18782676
Fe       0.77541000       4.93717000       1.04317000       1.56096300      -3.83372900       1.76362000       1.33892526      -3.51107252       1.50866422
Fe       0.07665000       3.70431000       3.74351000      -0.75952900      -0.39175400      -2.23189700      -1.09154388      -0.46472456      -2.28309761
Fe       4.77171000       3.58949000       4.78220000      -1.99219600      -4.62409700       0.48420500      -1.72717483      -4.53656210       0.40175106
Fe       4.12430000       1.49867000       1.46476000       0.29771700      -2.38794700       0.28396300       0.31236714      -2.64929204       0.10363533
Fe       0.95387000       5.17746000       5.28728000      -0.57085000      -0.50160400      -1.80733600      -0.95076776      -0.70812220      -1.31192104
Fe       1.93602000       3.09888000       2.36598000      -0.08855100       0.43128300      -0.27209000      -0.18688169       0.56747882      -0.46415002
Fe       5.69037000       1.28357000       4.20026000      -0.40866000      -0.49067900       0.18976600      -0.74963276      -0.27782920       0.23831883
Fe       1.94321000       2.86141000       5.39871000      -0.55906500       0.73218900      -1.80086600      -0.53727337       0.73849046      -1.89468447
Fe       4.33122000       5.38124000       5.25469000      -0.73272900       4.56545400       1.52017900      -0.63144339       4.35084579       1.53114583
B        0.37598000       1.64060000       1.21420000      -3.21263000       2.85095800       0.76078000      -3.05071631       2.71977641       0.88362135
B        1.88110000       4.04794000       3.96741000       2.48956600       2.45119300      -0.32261600       2.68763707       2.33806525      -0.31799132
B        3.63878000       0.94242000       5.41981000      -0.01444500       0.67937600       0.95779200       0.15653101       0.82816891       1.09697187
Si       1.19380000       0.26963000       0.19686000       0.54051800       0.24528300      -1.93219100       0.67279673      -0.01587475      -1.89841752
Si       4.57825000       3.47658000       1.16117000       0.15934200       1.26766700      -0.81102600       0.19197803       1.44636078      -0.74672362
Si       1.09558000       0.76720000       2.75124000       0.04909300      -1.52033200       1.50719200      -0.06666622      -1.67505350       1.46129004
54
Lattice="8.579999685 0.0 0.0 0.0 8.579999685 0.0 0.0 0.0 8.5799996" Properties=species:S:1:pos:R:3:REF_forces:R:3:MACE_forces:R:3 config_type=Fe34B10Si10 REF_energy=-356.0869274 MACE_energy=-356.94299573144895 pbc="T T T"
Fe       0.92877000       1.08311000       2.12831000      -0.53214900      -1.15432400       0.53007800      -0.68741178      -1.22099393       0.41857262
Fe       1.12794000       0.45096000       7.37327000      -2.86345100       2.18226700       1.45805300      -2.85502840       1.99077289       1.46237046
Fe       0.91289000       3.61082000       1.96264000      -1.66570100       0.50807500      -4.76654600      -1.66709185       0.31441320      -4.77901108
Fe       0.97242000       3.25012000       3.83975000      -0.85629000      -1.23507100      -0.91491200      -1.06648848      -1.20489554      -0.29803490
Fe       1.43574000       3.84332000       5.84621000      -1.94378300      -0.72872400       4.94145300      -2.07250850      -0.55688898       4.66668292
Fe       0.45897000       5.99881000       1.32384000       1.86679900       1.45939200      -0.33976700       1.64496200       1.57550536      -0.16137796
Fe       0.05714000       6.25044000       6.01250000       0.66851500      -0.88142700       1.67028200       0.73758497      -0.76399838       1.76973794
Fe       1.87526000       7.05991000       7.27744000      -5.90957000       6.81146600       5.95768600      -5.76215357       7.20296991       5.94894001
Fe       4.21220000       0.80536000       3.81626000       0.44958900      -1.97725700       0.54591300       0.54008433      -1.90737542       0.45048080
Fe       2.64196000       0.75311000       5.88605000       0.80305000      -0.92688600      -1.50973400       0.57164407      -1.07927328      -1.57893671
Fe       2.51735000       4.27963000       7.86001000      -0.17185400       2.88247300       0.00075600       0.01077590       2.96446509       0.29136749
Fe       2.46175000       4.76211000       4.38544000       2.27245000       6.36429500      -0.60000700       2.20225639       6.31857469      -0.59790552
Fe       3.99132000       4.46692000       6.09268000      -0.21521200      -1.96607600      -0.25853400      -0.20501770      -2.17654076      -0.17866454
Fe       4.03283000       6.20484000       2.50717000       0.32509400      -1.83048700       1.07686200       0.42738599      -1.75077710       1.14175394
Fe       2.62183000       8.12097000       1.25125000      -5.45108600      -1.04608100      -0.88869000      -5.53721903      -1.06961034      -0.59262671
Fe       2.34208000       7.49949000       3.33705000      -1.45221900       0.10179900       1.96325000      -1.24642327       0.20904027       1.59875479
Fe       4.67554000       0.98699000       8.35162000       1.97529500       0.95938300       0.07305200       1.70280132       0.80585264       0.38658867
Fe       4.68615000       2.28426000       1.60336000       6.03713100       4.39249100       1.56082500       6.20338176       4.34686104       1.16811164
Fe       4.95897000       4.28949000       0.91503000       1.24258400       3.77490300      -1.07876200       0.71715830       3.48810663      -1.25526621
Fe       5.62605000       3.84953000       3.25301000      -4.56775200       3.43217100       2.09526400      -4.58799408       3.50778975       1.91235618
Fe       5.63153000       5.70233000       4.67966000       0.04558900       0.36352900      -0.74034800       0.04556829      -0.05993196      -0.59862159
Fe       5.00954000       6.14620000       6.89198000       4.51113600      -2.60361300       1.43664400       4.55533848      -2.39287616       1.39951246
Fe       5.34723000       7.32984000       0.56425000       3.41130600      -7.55812200      -7.44238600       3.35979009      -7.01075290      -7.21858088
Fe       4.57141000       8.20633000       1.67615000      -2.51651100       6.57056000       9.11650700      -2.63377143       6.12001506       8.66840305
Fe       5.67084000       7.83697000       6.02451000      -0.02983000       3.57151200       0.33120700      -0.09364088       3.67436358       0.39158902
Fe       7.65837000       1.05332000       0.64336000       1.95813700       2.93603900      -3.62028800       1.88602273       2.96603556      -3.51878405
Fe       7.23579000       1.49494000       3.62009000       0.88838800      -1.50203300       3.00240400       0.96524322      -1.57711173       3.06142640
Fe       6.96409000       1.59543000       6.70415000       0.40175100      -2.57633900      -0.54943900       0.52183984      -2.53665617      -0.52512453
Fe       6.97946000       3.05325000       2.27831000       3.01329100      -2.85779700      -7.80747400       2.46200448      -2.95186855      -7.23025620
Fe       7.05854000       3.62734000       7.13255000       0.94483300       2.42104600       2.56329500       1.02996070       2.45644216       2.48718861
Fe       7.47490000       4.49325000       0.92243000      -3.13561000       0.06366500       0.11142200      -2.91693138       0.43197334      -0.29471059
Fe       7.76499000       5.40883000       4.05655000       3.42051700      -2.49950500       1.10150300       3.50639249      -2.67086900       1.12957802
Fe       6.91686000       6.16423000       2.38917000      -4.34160700       0.52717700      -3.24358900      -4.31441177       0.63255531      -3.18657623
Fe       7.31773000       7.39473000       4.73130000      -1.41907300       3.06948200       1.38572900      -1.43194983       3.06774735       1.34854829
B        1.63947000       5.44017000       2.85377000      -1.37965300       1.67099600      -0.34434500      -1.48254742       1.77736153      -0.62027506
B        3.47444000       1.29905000       1.69513000      -6.04542900      -7.46227000      -1.52467000      -5.89464853      -7.23886023      -1.17698919
B        2.31673000       1.42955000       3.77944000      -1.85652800      -2.14982900       3.21956500      -1.75270731      -1.98457277       3.47616606
B        3.17088000       0.01260000       8.16689000      -2.14308300      -0.12737100      -3.63430700      -2.03314620       0.10306492      -3.58970453
B        2.48887000       2.23189000       2.44876000      -1.30373000       3.96631200      -0.94871100      -0.88855723       3.87285763      -1.27609061
B        3.55016000       3.21990000       0.17024000       2.13469500      -3.52588700       0.23974700       2.16690778      -3.43710815       0.25908559
B        3.12966000       3.07291000       4.24572000      -6.99085300       0.34377600      -0.16579100      -7.16137071       0.10899023      -0.26235313
B        2.38358000       5.95301000       6.34325000       2.25901800      -8.76611800      -6.31465800       2.22486587      -9.21177762      -6.56067821
B        4.46260000       2.62992000       4.23823000       7.08507900      -1.75449200       0.40993300       7.22415226      -1.77528789       0.45712013
B        7.51183000       3.59374000       3.85724000       1.49621300      -1.20378300       3.39561400       1.52066064      -1.10306389       3.27170783
Si       0.50050000       1.66927000       5.10425000      -1.02554400      -2.67263500       2.61432900      -0.82480291      -2.91936808       2.54691833
Si       0.41923000       4.50138000       8.15701000       0.82744200      -0.47721100      -2.57541600       1.06017906      -0.44744468      -2.80673012
Si       2.90131000       4.25049000       1.93860000       2.71957100       0.04497600      -0.88170100       2.91961440      -0.04161576      -1.10354367
Si       3.74353000       6.85388000       5.19884000      -1.20766000       1.80214700      -2.20114300      -1.08242503       2.00163182      -2.18409624
Si       3.54209000       6.47938000       8.21357000      -0.45014500      -1.75854100       4.24377300      -0.55393562      -2.00771327       4.44558214
Si       4.55252000       1.74669000       6.40118000       0.28733400       0.20348600      -1.69136000       0.28106463       0.17833104      -1.68579442
Si       5.87020000       3.30923000       5.41310000       1.93974000       0.55942400      -1.14043100       1.57636307       0.73473641      -1.12365108
Si       6.68392000       0.09389000       2.07850000      -2.78148600      -1.30329400       2.70552900      -2.47661816      -1.22555788       2.83421644
Si       7.30980000       7.36953000       0.08595000       4.18267400      -0.22507900      -1.67891000       4.12575900      -0.51732673      -1.68145162
Si       8.41387000       7.50606000       2.97540000       5.08859000       1.78741200      -0.88875800       5.03903900       1.98965975      -0.90692426
54
Lattice="8.579999685 0.0 0.0 0.0 8.579999685 0.0 0.0 0.0 8.5799996" Properties=species:S:1:pos:R:3:REF_forces:R:3:MACE_forces:R:3 config_type=Fe34B10Si10 REF_energy=-359.84864784 MACE_energy=-360.3240775503085 pbc="T T T"
Fe       0.39531000       2.37288000       0.87042000       3.27925500       2.43832800      -1.60261100       3.21008987       2.65505958      -1.77251993
Fe       0.75383000       1.65209000       3.11094000       1.30783500      -0.34615400      -0.09267000       1.27840603      -0.81638014       0.17985358
Fe       1.33201000       3.79282000       7.26231000      -2.40668100      -1.18131200       0.32245500      -2.51615126      -1.06764250       0.21357751
Fe       0.64436000       4.41396000       2.97573000       2.42004200      -2.26182600       0.38963900       2.47877397      -2.08219922       0.23666410
Fe       0.14751000       6.42079000       3.51005000      -3.07002100       1.32407200      -2.30638400      -3.11703597       1.35992355      -2.49574641