1
config_type=IsolatedAtom Lattice="18.000000000 0.0 0.0 0.0 18.000000000 0.0 0.0 0.0 18.0000000" Properties=species:S:1:pos:R:3:forces:R:3 energy=-3.28308100 pbc="T T T"
Fe 0.00000 0.00000 0.00000 0.000000 0.000000 0.000000
1
config_type=IsolatedAtom Lattice="18.000000000 0.0 0.0 0.0 18.000000000 0.0 0.0 0.0 18.0000000" Properties=species:S:1:pos:R:3:forces:R:3 energy=-0.81049333 pbc="T T T"
Si 0.00000 0.00000 0.00000 0.000000 0.000000 0.000000
1
config_type=IsolatedAtom Lattice="18.000000000 0.0 0.0 0.0 18.000000000 0.0 0.0 0.0 18.0000000" Properties=species:S:1:pos:R:3:forces:R:3 energy=-0.27559471 pbc="T T T"
B 0.00000 0.00000 0.00000 0.000000 0.000000 0.000000
10
config_type=Fe5B1Si4 Lattice="9.000000000 0.0 0.0 0.0 9.000000000 0.0 0.0 0.0 9.000000000" Properties=species:S:1:pos:R:3:forces:R:3 energy=-44.58554767 pbc="T T T"
Fe 3.50176 8.99673 3.09396 0.954350 -0.458038 0.214742
Fe 6.43801 1.81225 6.74888 1.109709 -0.664768 -1.170074
Fe 2.41193 0.16613 4.88253 0.309132 -0.899960 0.170118
Fe 8.52164 3.22369 0.34244 -0.587905 -0.473067 -0.378617
Fe 5.66627 2.92739 3.87411 4.775096 2.807336 2.400004
B 5.18442 1.13758 3.40139 -0.739571 0.380651 0.446761
Si 7.10242 1.59600 3.97694 2.280293 -3.673240 1.186348
Si 7.70822 8.86280 6.25904 -0.732072 1.845636 -0.482660
Si 3.91832 3.09724 3.40175 -6.850545 -1.089834 -1.756024
Si 3.63788 6.78794 4.49538 -0.518488 2.225285 -0.630598
10
config_type=Fe5B1Si4 Lattice="9.000000000 0.0 0.0 0.0 9.000000000 0.0 0.0 0.0 9.000000000" Properties=species:S:1:pos:R:3:forces:R:3 energy=-48.18464377 pbc="T T T"
Fe 7.72908 2.13801 3.67226 -0.721407 1.385902 0.184391
Fe 2.56544 0.37534 3.55582 0.625808 1.028544 -0.219519
Fe 5.84797 2.87648 5.04299 -0.519923 -1.030882 -1.605047
Fe 2.00259 1.62931 5.21757 0.167099 0.686970 -1.463422
Fe 3.04146 3.03902 3.03634 2.845414 -0.116319 1.576600
B 4.26036 4.67435 3.72342 0.680655 -0.167352 -1.565906
Si 6.34493 4.18783 3.43892 -0.407750 -0.066731 -0.639784
Si 0.98363 2.81182 2.85911 -2.449133 -1.455015 1.183499
Si 4.97672 0.35177 3.88032 -0.442200 1.581161 0.171917
Si 4.49316 6.21641 2.06194 0.221439 -1.846278 2.377273
10
config_type=Fe5B1Si4 Lattice="11.000000000 0.0 0.0 0.0 11.000000000 0.0 0.0 0.0 11.000000000" Properties=species:S:1:pos:R:3:forces:R:3 energy=-11.58855075 pbc="T T T"
Fe 8.76471 0.00946 6.88513 -0.228197 0.122372 -0.555436
Fe 2.63377 1.33277 3.45207 -0.775763 -0.081364 -0.000275
Fe 9.34605 7.55219 3.04608 -1.573119 -1.034738 -0.154877
Fe 6.36389 7.12183 3.09324 1.096831 0.042421 -0.128163
Fe 1.35866 0.14865 4.85122 1.245649 1.432659 -2.240783
B 0.74424 4.87887 2.93866 -1.133595 -0.785660 -1.948090
Si 0.41110 1.07145 2.73658 1.341787 0.504562 -0.250588
Si 0.39736 3.73439 0.50956 -1.079058 -1.523362 2.185666
Si 9.29283 2.08457 0.89045 2.552141 0.437578 0.400815
Si 2.63700 1.37373 1.21644 -1.446677 0.885532 2.691731
10
config_type=Fe5B1Si4 Lattice="11.000000000 0.0 0.0 0.0 11.000000000 0.0 0.0 0.0 11.000000000" Properties=species:S:1:pos:R:3:forces:R:3 energy=-38.14997444 pbc="T T T"
Fe 0.55560 8.19331 7.06229 0.607007 -1.879874 0.402477
Fe 0.49601 2.54487 7.78872 -1.629144 1.440616 0.728163
Fe 10.07332 3.88379 9.42053 1.490551 0.964764 -0.053277
Fe 4.45932 9.07691 6.11289 0.246608 -0.528217 -0.023783
Fe 9.54221 0.53076 0.28158 -0.512093 1.498423 -0.392185
B 10.69505 5.70310 8.40523 0.718762 -1.050349 -0.260699
Si 9.01619 3.31434 7.76349 0.221017 -0.393761 -0.824836
Si 1.50005 6.10934 7.36041 -1.473546 0.221792 0.829931
Si 8.29851 3.23195 10.75936 1.252386 -0.706063 -0.691910
Si 3.13187 10.62875 6.05729 -0.921548 0.432669 0.286120
10
config_type=Fe5B1Si4 Lattice="11.000000000 0.0 0.0 0.0 11.000000000 0.0 0.0 0.0 11.000000000" Properties=species:S:1:pos:R:3:forces:R:3 energy=-39.54850766 pbc="T T T"
Fe 7.32260 2.25273 9.60151 -0.810680 1.957592 1.524241
Fe 5.30456 3.18059 0.62935 3.594078 0.603011 0.450042
Fe 5.70290 5.32015 10.23784 -0.556387 -0.416911 -0.586312
Fe 7.71673 4.32859 0.10409 -1.517830 -0.483647 -0.946365
Fe 5.73415 7.17747 8.80515 -0.195590 -2.267997 1.437693
B 3.53335 2.44513 3.14396 1.806025 1.424690 1.465299
Si 3.05847 4.99331 9.56994 1.584606 0.223476 0.294434
Si 4.66874 2.05360 5.35076 -1.232965 0.333480 -2.530961
Si 3.35109 3.37679 0.23198 -2.518547 0.790600 -0.764066
Si 4.02675 4.41289 2.41329 -0.152709 -2.164294 -0.344006
10
config_type=Fe5B1Si4 Lattice="11.000000000 0.0 0.0 0.0 11.000000000 0.0 0.0 0.0 11.000000000" Properties=species:S:1:pos:R:3:forces:R:3 energy=-30.22050192 pbc="T T T"
Fe 7.51027 10.11418 2.18625 -1.697909 1.729732 -1.196449
Fe 6.52329 1.24583 0.98294 2.875831 -1.884166 0.593553
Fe 8.50320 0.98219 3.23617 1.149408 -1.939658 -1.011817
Fe 8.81725 8.60479 1.96311 1.701330 -1.334653 0.851490
Fe 9.16079 2.26416 1.64872 -0.921808 1.061685 -1.015425
B 8.94441 4.16897 10.47399 -1.125114 0.543758 0.636708
Si 10.42398 4.23416 1.05026 -1.524800 -0.054101 -1.016595
Si 7.56198 2.31002 4.34386 -1.293638 1.801153 0.979583
Si 8.52672 8.61906 10.86161 -0.944435 0.654050 -0.318861
Si 6.81456 4.96874 9.06450 1.781135 -0.577799 1.497812
10
config_type=Fe5B1Si4 Lattice="11.000000000 0.0 0.0 0.0 11.000000000 0.0 0.0 0.0 11.000000000" Properties=species:S:1:pos:R:3:forces:R:3 energy=-36.59236839 pbc="T T T"
Fe 3.58274 10.79851 10.73667 0.118979 0.226301 -0.049768
Fe 1.22875 2.49300 7.21708 2.260975 -1.536258 1.076497
Fe 0.83190 3.93076 3.48688 1.350860 -1.692502 0.454896
Fe 9.39560 2.93064 6.23859 -2.274143 -0.917823 -0.869790
Fe 1.68648 4.78764 5.33563 -2.422074 -1.787751 -0.347557
B 0.09146 3.23421 6.27209 0.333742 3.189435 -3.087393
Si 10.14804 1.29848 4.70398 -0.271940 2.699975 0.889660
Si 7.91960 4.68330 6.38399 1.005718 -0.897917 -1.905319
Si 7.87407 3.80560 3.83659 1.694369 0.657611 2.093449
Si 10.18862 4.97429 4.13294 -1.796486 0.058928 1.745324
10
config_type=Fe5B1Si4 Lattice="11.000000000 0.0 0.0 0.0 11.000000000 0.0 0.0 0.0 11.000000000" Properties=species:S:1:pos:R:3:forces:R:3 energy=-37.97135349 pbc="T T T"
Fe 9.03194 7.52207 3.76953 -0.416928 1.062138 1.362156
Fe 10.13763 10.16701 4.97367 -1.484146 -0.408325 -0.110782
Fe 4.72985 7.86062 7.54580 -0.463416 -0.842336 0.256680
Fe 8.27206 8.93115 5.41966 2.102039 0.886041 -1.491795
Fe 4.77388 2.87329 5.35297 -0.275049 -0.539221 -0.847281
B 4.61354 3.86066 6.74103 -0.143628 -0.149152 -1.570055
Si 1.64433 3.13639 3.91354 3.757078 -0.878034 -0.364081
Si 3.74801 5.66030 6.94882 0.452103 0.369576 0.684879
Si 8.69515 0.60160 4.24738 -0.189838 -0.107478 0.510289
Si 10.87890 3.62141 4.73344 -3.338214 0.606792 1.569990
10
config_type=Fe5B1Si4 Lattice="11.000000000 0.0 0.0 0.0 11.000000000 0.0 0.0 0.0 11.000000000" Properties=species:S:1:pos:R:3:forces:R:3 energy=-19.85588119 pbc="T T T"
Fe 0.38446 1.64586 0.19247 -0.315449 0.999063 -1.165310
Fe 4.73202 7.12132 7.31276 0.319298 -0.235561 1.398755
Fe 0.36789 2.73674 6.71847 0.184317 -0.994364 -3.071942
Fe 10.07665 2.07009 8.11408 -1.056253 0.134758 -0.044217
Fe 0.10300 10.83360 4.98934 -0.799882 1.039580 0.823766
B 9.83138 1.34479 5.59342 2.730033 -1.600693 1.718601
Si 8.95511 2.30296 4.33786 -0.139078 0.367719 0.115064
Si 3.99539 10.22212 8.61506 -0.052485 -0.480716 0.189414
Si 2.69021 5.15166 10.73011 1.277223 0.176800 0.104538
Si 5.75937 5.49395 10.03068 -2.147726 0.593414 -0.068668
10
config_type=Fe5B1Si4 Lattice="9.000000000 0.0 0.0 0.0 9.000000000 0.0 0.0 0.0 9.000000000" Properties=species:S:1:pos:R:3:forces:R:3 energy=-45.52219027 pbc="T T T"
Fe 5.95652 4.23215 1.06155 -0.987679 -0.500294 -0.251424
Fe 5.13270 1.30654 4.87525 -1.029728 1.076945 -1.042714
Fe 0.86010 2.84042 4.86982 1.780909 -0.140361 -0.682902
Fe 4.80846 2.20734 0.33653 -0.709344 1.798204 0.475994
Fe 4.84818 3.73073 2.87016 -1.115998 -1.474444 -2.616029
B 3.56051 3.01373 4.13091 -3.275825 -2.909173 -1.742829
Si 3.41138 1.28778 2.26512 0.957077 2.374051 0.978605
Si 5.16668 2.63723 6.68984 0.074139 -1.786426 3.363186
Si 3.08125 3.86721 0.97989 1.939305 -1.048315 0.871542
Si 4.99984 3.77363 4.95280 2.367143 2.609812 0.646571
10
config_type=Fe5B1Si4 Lattice="11.000000000 0.0 0.0 0.0 11.000000000 0.0 0.0 0.0 11.000000000" Properties=species:S:1:pos:R:3:forces:R:3 energy=-40.74185070 pbc="T T T"
Fe 5.85212 3.50546 5.08734 2.156771 -0.794145 -0.208947
Fe 4.00684 5.71103 1.22208 0.173219 0.192609 1.303845
Fe 8.00148 8.34774 10.98030 -0.083638 -0.045504 0.029011
Fe 7.35073 2.40140 6.64128 0.779063 1.124799 -0.710561
Fe 10.15241 4.26124 5.16236 -1.218687 -1.079763 1.034245
B 7.50939 3.71850 4.30627 0.817754 0.011910 1.188465
Si 0.88259 3.63568 4.13155 0.184579 0.088076 0.635499
Si 4.29968 6.34926 4.01086 -0.044702 -1.656851 -0.275302
Si 3.89182 4.30839 5.36988 -1.810919 1.591079 -0.754928
Si 9.83466 2.97427 7.53103 -0.953440 0.567792 -2.241327
10
config_type=Fe5B1Si4 Lattice="9.000000000 0.0 0.0 0.0 9.000000000 0.0 0.0 0.0 9.000000000" Properties=species:S:1:pos:R:3:forces:R:3 energy=-42.65563223 pbc="T T T"
Fe 5.47398 6.28103 3.23251 0.283553 0.058337 0.131172
Fe 3.48819 2.94480 4.89866 -0.875092 -0.043706 2.152303
Fe 8.33854 1.27421 2.74786 -0.463644 1.927156 1.335640
Fe 6.99962 2.76087 4.14267 -0.447465 1.637664 1.887621
Fe 1.77962 3.26723 3.35280 -0.522188 -0.674898 0.432593
B 4.62666 4.86714 2.55939 0.266146 -1.037520 0.988111
Si 4.18354 2.39378 2.99079 0.437955 1.509300 -2.718785
Si 8.55432 3.88894 3.61944 3.248048 2.018929 -1.579197
Si 5.93563 1.17498 3.69373 -1.919944 -5.308006 -1.488763
Si 0.45419 2.68863 5.46192 -0.007368 -0.087256 -1.140694
10
config_type=Fe5B1Si4 Lattice="11.000000000 0.0 0.0 0.0 11.000000000 0.0 0.0 0.0 11.000000000" Properties=species:S:1:pos:R:3:forces:R:3 energy=-34.53347477 pbc="T T T"
Fe 10.38446 0.44273 4.17388 -0.782378 -1.860983 1.109849
Fe 5.58579 5.13476 2.28318 -1.351833 0.991682 -0.543199
Fe 10.26893 9.29847 6.65501 0.413442 0.045489 -2.047869
Fe 8.86095 8.11141 4.18070 1.291330 1.249140 1.049260
Fe 7.69214 0.53975 5.12514 1.955095 -0.609112 -1.008139
B 2.74748 4.83778 0.91630 1.391964 -0.123936 -0.201964
Si 6.81162 1.90994 1.53462 -0.521848 1.182616 -0.410561
Si 6.12115 4.10888 0.52255 1.581730 -1.751626 1.460511
Si 0.91081 9.09353 4.86613 -2.084857 0.694672 0.518554
Si 4.16380 4.58033 10.67633 -1.892646 0.182058 0.073558
10
config_type=Fe5B1Si4 Lattice="11.000000000 0.0 0.0 0.0 11.000000000 0.0 0.0 0.0 11.000000000" Properties=species:S:1:pos:R:3:forces:R:3 energy=-31.88716106 pbc="T T T"
Fe 1.14116 9.49468 10.94139 1.031619 -0.449951 -0.398771
Fe 7.21367 6.98307 4.70883 -2.943014 -1.466888 0.650142
Fe 4.99485 7.56523 3.28858 0.744650 -0.235437 -0.708888
Fe 5.11075 7.78078 8.02245 -0.735452 -0.541424 0.973325
Fe 5.02580 6.08327 6.14288 1.531072 2.079866 -0.443553
B 6.46739 9.52531 1.42776 -0.832130 -0.783142 0.215344
Si 3.36056 5.78054 9.88043 -0.354089 0.867592 0.703375
Si 3.68875 6.60974 1.41965 0.140043 0.026952 -1.002595
Si 3.95884 8.08391 10.56775 0.214564 0.933039 -0.268741
Si 1.56076 7.66233 9.57449 1.202738 -0.430607 0.280363
10
config_type=Fe5B1Si4 Lattice="11.000000000 0.0 0.0 0.0 11.000000000 0.0 0.0 0.0 11.000000000" Properties=species:S:1:pos:R:3:forces:R:3 energy=-2.43842541 pbc="T T T"
Fe 8.11536 3.96737 6.09845 2.523790 3.394380 -0.108552
Fe 4.00538 4.00868 8.30741 1.038602 0.497493 -0.862102
Fe 6.21734 5.49238 4.54674 -1.900785 -0.532330 2.457730
Fe 6.37295 3.21617 6.01003 -4.314290 -0.629281 -0.351443
Fe 4.28107 3.14598 4.09228 1.683016 0.433203 1.574168
B 8.65122 7.09833 7.78974 -0.815884 -0.967116 -2.458757
Si 8.15838 5.95236 4.46257 2.659552 1.430373 0.956383
Si 7.04021 6.67768 6.73922 0.092015 -1.718998 -1.458600
Si 9.92269 6.79012 6.33039 -1.334227 -1.063855 -1.260440
Si 6.58826 7.17809 3.12641 0.368212 -0.843870 1.511613
10
config_type=Fe5B1Si4 Lattice="6.000000000 0.0 0.0 0.0 6.000000000 0.0 0.0 0.0 6.000000000" Properties=species:S:1:pos:R:3:forces:R:3 energy=-53.79328822 pbc="T T T"
Fe 0.50996 2.31585 5.10298 -1.265990 -0.509514 -1.369141
Fe 4.41281 4.39623 3.51801 2.050664 2.951385 -2.146824
Fe 1.31233 5.37312 2.96679 -9.669854 0.218482 6.648898
Fe 5.30196 5.42046 5.41384 1.203647 0.822371 -1.123750
Fe 2.97556 4.92730 5.11455 -0.797184 0.133107 0.961474
B 5.46078 0.52907 3.64926 -0.060893 0.255905 0.664782
Si 2.81628 5.37752 2.00180 6.857518 -0.729042 -5.537115
Si 3.67557 2.72706 4.43876 -0.828066 -3.202054 1.233285
Si 4.50462 4.23004 1.13387 0.986547 -1.714370 -0.386314
Si 3.47649 1.50306 2.12993 1.523610 1.773731 1.054705
10
config_type=Fe5B1Si4 Lattice="12.000000000 0.0 0.0 0.0 12.000000000 0.0 0.0 0.0 12.000000000" Properties=species:S:1:pos:R:3:forces:R:3 energy=-45.66921287 pbc="T T T"
Fe 4.03767 2.41086 6.51410 1.868033 0.005853 0.510632
Fe 4.79727 11.75927 9.09533 0.540497 0.455137 -1.323768
Fe 5.80034 0.20229 7.24671 -0.985880 0.208025 0.941372
Fe 2.05211 2.95405 6.25512 2.573830 -4.971719 -0.052438
Fe 10.63745 6.40731 8.22423 2.536717 0.813115 1.953743
B 0.84162 3.96532 6.10421 -4.867463 6.153259 -0.199187
Si 11.63963 6.23445 6.22676 -0.357047 -1.543890 0.244094
Si 3.22498 4.42586 7.46287 0.037993 -0.110152 2.779977
Si 9.18537 5.87384 7.01392 -1.440920 -0.742811 -2.377883
Si 3.29574 4.59508 5.32414 0.094240 -0.266816 -2.476542
10
config_type=Fe5B1Si4 Lattice="12.000000000 0.0 0.0 0.0 12.000000000 0.0 0.0 0.0 12.000000000" Properties=species:S:1:pos:R:3:forces:R:3 energy=-40.44776833 pbc="T T T"
Fe 7.06472 0.75703 4.41200 -0.732869 1.739707 1.226713
Fe 11.90054 7.42248 6.69802 0.032468 0.647337 0.982059
Fe 10.12418 0.60541 5.20823 -0.488591 -2.037301 1.246700
Fe 10.39300 2.54150 5.28917 -0.332978 2.174271 0.655054
Fe 3.33542 6.78910 9.86388 0.247376 -0.090760 0.052852
B 5.53916 2.15702 5.34372 1.681145 -0.398100 -0.489189
Si 11.55305 0.58230 7.59681 -1.030751 -0.313934 -1.354835
Si 11.22335 9.29389 8.05067 1.297346 -2.135186 -1.487857
Si 1.26500 7.26526 9.42025 -0.899605 0.426505 -1.303062
Si 7.94311 2.74864 5.06637 0.226459 -0.012537 0.471566
10
config_type=Fe5B1Si4 Lattice="12.000000000 0.0 0.0 0.0 12.000000000 0.0 0.0 0.0 12.000000000" Properties=species:S:1:pos:R:3:forces:R:3 energy=-23.43353304 pbc="T T T"
Fe 9.63658 7.42241 5.86764 0.470350 2.052911 -2.727586
Fe 5.31881 6.36859 4.28876 -0.801074 -1.015909 -1.124490
Fe 3.82927 4.00917 2.43559 0.300202 0.230850 0.330447
Fe 0.10056 0.89748 10.48989 0.225393 0.119157 -0.831822
Fe 3.01612 10.54701 9.70541 0.662090 0.555795 -1.797463
B 9.50506 6.56368 7.19255 -0.497793 -2.956372 4.934841
Si 6.10297 11.04688 1.87040 -1.952298 -0.101303 1.465121
Si 4.27572 10.50612 7.24675 -0.518704 0.163762 0.689086
Si 2.76286 11.67463 2.22984 1.932003 -0.744588 0.991511
Si 4.28644 10.33460 3.83849 0.179832 1.695697 -1.929645
10
config_type=Fe5B1Si4 Lattice="12.000000000 0.0 0.0 0.0 12.000000000 0.0 0.0 0.0 12.000000000" Properties=species:S:1:pos:R:3:forces:R:3 energy=-8.07237855 pbc="T T T"
Fe 4.75916 6.79891 2.05132 0.227992 0.192424 -0.571322
Fe 11.20664 1.83254 0.32250 0.186930 0.087181 -0.380448
Fe 5.43785 7.96114 4.94194 0.175586 -1.260937 -2.231513
Fe 4.74010 7.59209 6.81351 -1.605391 -0.150679 3.878819
Fe 3.04237 7.27375 0.13546 1.234701 0.758808 1.136995
B 5.64718 0.89739 1.78136 -1.082613 2.274185 -1.454878
Si 10.10405 8.38981 0.94488 -0.255336 -0.236123 -0.636934
Si 8.32135 7.16483 0.24873 -0.075094 0.444241 -0.365272
Si 4.71858 3.09313 0.71193 1.053829 -1.853947 0.744057
Si 9.61989 6.24678 1.84823 0.139394 -0.255153 -0.119504
10
config_type=Fe5B1Si4 Lattice="10.000000000 0.0 0.0 0.0 10.000000000 0.0 0.0 0.0 10.000000000" Properties=species:S:1:pos:R:3:forces:R:3 energy=-19.59215216 pbc="T T T"
Fe 7.84441 7.30720 5.58296 0.276170 -0.464287 -0.209720
Fe 8.94797 0.78587 5.26505 0.076662 -0.295113 -0.793869
Fe 3.00248 7.57529 4.93739 -0.148847 -0.480636 0.265657
Fe 3.59461 2.02957 9.66135 -2.569883 0.201731 2.504912
Fe 6.58411 3.94287 5.68002 0.772788 0.646513 -0.524098
B 4.36328 8.59880 4.19680 0.927201 0.897036 -0.221791
Si 2.71514 9.18506 3.42190 -0.708909 0.043769 -0.821153
Si 1.65756 2.11952 1.71927 1.118284 -0.584239 -0.482166
Si 5.92714 8.11752 5.13325 0.374997 -0.504603 0.033997
Si 4.15593 6.82228 3.14686 -0.118464 0.539830 0.248230
10
config_type=Fe5B1Si4 Lattice="12.000000000 0.0 0.0 0.0 12.000000000 0.0 0.0 0.0 12.000000000" Properties=species:S:1:pos:R:3:forces:R:3 energy=-36.29094727 pbc="T T T"
Fe 5.19667 10.02018 9.01676 0.250445 0.058370 -0.131133
Fe 8.32994 6.43692 0.05364 0.207810 -2.155900 0.619186
Fe 10.60266 3.84707 11.78075 1.235133 1.014058 1.244218
Fe 7.21635 4.39457 10.91108 -0.581153 5.608874 7.610684
Fe 10.53110 3.48387 2.04262 0.091722 0.585807 -2.089879
B 9.08593 5.29692 1.79433 0.560827 -0.760552 -2.026162
Si 8.11299 5.88038 3.32391 -0.207177 0.248008 0.392773
Si 8.62540 3.34184 11.79764 0.289378 -2.178819 1.649608
Si 6.89606 3.80616 9.27382 -1.221022 -3.002172 -8.064395
Si 10.23285 5.01250 3.45401 -0.625962 0.582327 0.795100
10
config_type=Fe5B1Si4 Lattice="9.000000000 0.0 0.0 0.0 9.000000000 0.0 0.0 0.0 9.000000000" Properties=species:S:1:pos:R:3:forces:R:3 energy=-16.46863033 pbc="T T T"
Fe 7.97770 7.22347 3.46950 0.491481 -0.129298 0.035277
Fe 0.36482 4.81625 4.86010 1.091294 2.169258 -0.551581
Fe 5.55659 8.48212 7.00420 -0.423593 -1.190221 1.442322
Fe 7.45892 4.00039 8.45371 0.138592 0.987108 -0.179151
Fe 0.74745 0.26604 3.96015 0.862065 -1.920589 -0.009046
B 0.13927 8.21504 8.07808 0.675366 -1.399826 -0.673861
Si 5.36430 7.26535 0.11873 0.578949 -0.267658 0.005273
Si 1.22178 6.44429 7.65768 -0.671782 1.327977 -0.375666
Si 1.89924 6.52108 3.14767 -1.556927 1.189626 1.089250
Si 2.86218 0.05280 4.92507 -1.185445 -0.766378 -0.782817
10
config_type=Fe5B1Si4 Lattice="6.000000000 0.0 0.0 0.0 6.000000000 0.0 0.0 0.0 6.000000000" Properties=species:S:1:pos:R:3:forces:R:3 energy=-57.17978289 pbc="T T T"
Fe 0.82404 0.93657 0.05841 0.670658 -0.394145 0.385947
Fe 2.76149 5.14944 5.17737 0.734212 1.307163 0.272282
Fe 3.01500 1.77001 4.94511 1.166924 -0.742646 0.930821
Fe 5.01427 3.37755 4.72813 -0.721495 -0.854244 0.463654
Fe 4.86466 1.99267 0.70298 -1.675104 -0.533256 -0.944467
B 3.04207 0.73323 1.20916 -0.120332 0.281948 -1.731191
Si 0.93388 1.79870 3.86446 -0.799676 0.209514 0.306234
Si 5.01956 0.00688 4.78660 -0.959030 -0.009235 1.011049
Si 3.09734 2.22042 2.71278 0.913953 -0.433735 -0.102475
Si 1.73178 5.32541 2.17278 0.789891 1.168637 -0.591853
10
config_type=Fe5B1Si4 Lattice="7.000000000 0.0 0.0 0.0 7.000000000 0.0 0.0 0.0 7.000000000" Properties=species:S:1:pos:R:3:forces:R:3 energy=-52.63185060 pbc="T T T"
Fe 4.04120 5.24096 2.80196 -0.044742 0.155618 -0.605860
Fe 4.87514 6.42249 6.56316 -2.425019 2.417958 4.169808
Fe 1.13800 5.59977 2.62461 1.046340 0.744963 -0.428528
Fe 6.36530 2.83764 4.85137 -1.172320 0.553647 -0.083185
Fe 4.59448 4.27582 6.88498 -0.303736 0.311146 0.279016
B 3.16192 5.58324 1.06806 0.805026 -0.460793 0.368944
Si 5.75859 5.70346 4.97269 2.633859 -4.356761 -3.217228
Si 5.01974 0.67585 4.19766 1.828569 2.331119 2.426840
Si 3.33753 0.43826 2.90586 -2.903397 -0.577012 -1.915893
Si 5.60339 0.09363 2.01940 0.535420 -1.119885 -0.993914
10
config_type=Fe5B1Si4 Lattice="7.000000000 0.0 0.0 0.0 7.000000000 0.0 0.0 0.0 7.000000000" Properties=species:S:1:pos:R:3:forces:R:3 energy=-45.53831339 pbc="T T T"
Fe 1.60031 3.16383 6.69069 -16.929554 -1.631340 11.463342
Fe 6.71270 6.24264 6.84412 1.824729 0.015649 1.450253
Fe 1.56135 0.78242 0.54042 -1.834875 0.791352 0.021673
Fe 3.58848 5.80359 2.44508 0.166663 -0.195647 -0.237310
Fe 5.51158 2.06294 2.80654 1.130614 -0.548058 -0.876762
B 6.97539 1.80261 1.25099 0.969889 -0.258931 0.068642
Si 2.85217 3.24484 5.67764 14.852467 0.797097 -11.515446
Si 0.51384 4.15773 1.58186 0.003359 -0.140935 -0.857493
Si 6.60373 3.43036 5.10039 0.793803 -0.285372 0.840569
Si 5.77750 4.26165 3.14328 -0.977096 1.456186 -0.357467
10
config_type=Fe5B1Si4 Lattice="7.000000000 0.0 0.0 0.0 7.000000000 0.0 0.0 0.0 7.000000000" Properties=species:S:1:pos:R:3:forces:R:3 energy=-47.88235844 pbc="T T T"
Fe 5.11777 3.92243 5.56867 0.339468 -0.208667 1.554624
Fe 3.92194 0.29525 3.58346 0.263933 -0.664365 -0.505774
Fe 0.39706 2.24617 2.67499 -0.585789 -1.025443 -0.813743
Fe 0.96267 4.22057 0.55096 -2.114815 0.449177 0.234620
Fe 6.49597 6.28017 6.58258 -0.489541 -2.263989 0.885135
B 5.61736 4.71214 0.49131 1.471515 0.080534 -1.122256
Si 0.63747 6.99627 3.27879 0.002919 0.911030 -0.142170
Si 6.29663 0.72716 1.27009 -0.140355 0.746744 0.329080
Si 4.63297 4.81979 3.58880 0.172979 1.058695 -0.353392
Si 4.29773 2.39034 0.49245 1.079685 0.916284 -0.066124
10
config_type=Fe5B1Si4 Lattice="7.000000000 0.0 0.0 0.0 7.000000000 0.0 0.0 0.0 7.000000000" Properties=species:S:1:pos:R:3:forces:R:3 energy=-50.43279299 pbc="T T T"
Fe 0.20817 6.82888 0.31142 -0.134642 -0.025635 -0.819395
Fe 3.00988 5.06604 3.46522 -0.247291 -0.240477 1.523231
Fe 2.43890 2.46541 3.64497 0.911832 0.110078 0.224099
Fe 5.10599 3.62533 4.06725 -2.244007 2.833775 -1.192359
Fe 1.17223 0.44623 2.37752 0.820194 0.255410 1.259833
B 4.29792 1.92252 3.33369 0.511655 2.958362 -0.267848
Si 4.21271 0.39099 4.29732 -1.222180 -3.172852 0.492368
Si 6.06492 2.01819 4.86076 1.366523 -2.805714 0.739716
Si 0.21602 4.70843 6.44320 -1.246732 0.425991 0.346073
Si 1.98873 3.98969 5.37908 1.484648 -0.338937 -2.305719
10
config_type=Fe5B1Si4 Lattice="7.000000000 0.0 0.0 0.0 7.000000000 0.0 0.0 0.0 7.000000000" Properties=species:S:1:pos:R:3:forces:R:3 energy=-52.36015921 pbc="T T T"
Fe 0.39108 6.93658 0.65665 -0.489335 1.489063 1.385148
Fe 0.92250 2.42025 1.75751 -1.210392 1.130561 0.419142
Fe 1.17881 5.25102 6.77114 1.708764 -0.542203 -2.741932
Fe 2.98824 6.57728 6.85309 -2.138296 -0.252773 0.224631
Fe 0.96747 3.04559 6.10641 -0.152117 -1.313494 1.604140
B 0.43615 4.46615 1.18872 0.473111 -1.446178 1.341389
Si 0.14791 6.01453 3.04077 0.700961 -1.362224 -0.307882
Si 0.44288 3.74040 4.13392 0.190464 0.488613 -1.722365
Si 6.20565 1.03233 2.58565 0.701258 1.426328 -0.613279
Si 0.53798 1.08131 4.64605 0.215581 0.382309 0.411009
10
config_type=Fe5B1Si4 Lattice="10.000000000 0.0 0.0 0.0 10.000000000 0.0 0.0 0.0 10.000000000" Properties=species:S:1:pos:R:3:forces:R:3 energy=-42.24938389 pbc="T T T"
Fe 6.07845 0.28734 4.94890 -1.739200 3.274248 -0.043753
Fe 7.62488 6.75678 3.99182 0.320481 -3.971223 0.587990
Fe 7.02484 2.35956 7.60996 -0.252142 -0.779566 -0.303562
Fe 8.65389 6.55701 8.67658 -1.040141 -1.782627 -1.127143
Fe 5.44305 4.23407 2.75428 0.148674 -0.326587 0.541823
B 4.87442 1.31352 3.66755 1.562401 -1.469150 -0.913087
Si 6.77074 8.49878 4.22649 -1.295016 1.703114 -0.606903
Si 5.05560 9.75384 1.89583 0.493466 1.192628 2.712006
Si 7.68044 4.42374 7.46062 0.225978 2.522407 -0.150153
Si 6.10549 6.37735 6.00188 1.575498 -0.363244 -0.697218
10
config_type=Fe5B1Si4 Lattice="7.000000000 0.0 0.0 0.0 7.000000000 0.0 0.0 0.0 7.000000000" Properties=species:S:1:pos:R:3:forces:R:3 energy=-55.81831704 pbc="T T T"
Fe 4.08975 0.32770 1.04877 0.509487 0.312802 -0.757664
Fe 6.54020 4.76665 0.85984 -3.565543 -3.094999 1.779659
Fe 0.09417 1.13841 6.34945 0.336136 0.574244 0.248534
Fe 3.84140 6.81801 4.80242 1.710895 0.174372 0.566786
Fe 4.48802 2.61766 6.30954 0.392557 -0.368027 0.625140
B 5.33403 1.12036 5.52963 1.139377 -0.479595 -1.214219
Si 5.04372 4.47011 5.36591 1.498386 1.451583 -0.237547
Si 2.62865 0.34715 3.00445 -1.334726 1.383041 -0.706927
Si 0.89956 2.53031 2.07686 -0.226855 -0.077655 -0.267280
Si 6.96353 2.39024 4.36983 -0.459714 0.124234 -0.036483
10
config_type=Fe5B1Si4 Lattice="7.000000000 0.0 0.0 0.0 7.000000000 0.0 0.0 0.0 7.000000000" Properties=species:S:1:pos:R:3:forces:R:3 energy=-47.95110328 pbc="T T T"
Fe 3.00437 2.70721 4.17782 -0.984070 -0.643934 0.481905
Fe 2.68529 0.46564 2.75272 1.270280 7.081898 0.441263
Fe 5.18031 6.38659 3.05319 -1.987528 -0.559213 -1.560840
Fe 5.03566 0.57216 0.83912 -2.845913 2.235458 3.019913
Fe 2.68889 6.96434 5.79949 0.584366 0.405176 -0.656508
B 3.89742 3.30325 2.80282 -0.793907 0.992007 -1.620453
Si 2.59830 5.60538 2.84847 1.649830 -3.281697 3.505092
Si 6.52344 0.54362 4.15378 1.301216 0.474709 1.218563
Si 2.02754 4.07757 1.66784 -0.178618 -4.702754 -1.883540
Si 6.04261 6.37244 6.69346 1.984344 -2.001651 -2.945396
10
config_type=Fe5B1Si4 Lattice="6.000000000 0.0 0.0 0.0 6.000000000 0.0 0.0 0.0 6.000000000" Properties=species:S:1:pos:R:3:forces:R:3 energy=-56.54630391 pbc="T T T"
Fe 0.51666 0.03045 1.18078 -1.052090 -0.317093 -0.163152
Fe 5.39996 4.56316 3.56482 -0.587385 -0.302143 -0.262738
Fe 1.59434 4.19788 4.04682 0.784121 0.740141 0.388138
Fe 1.70288 0.70143 3.23210 -2.197778 1.523629 3.093979
Fe 4.37987 4.29138 0.64538 -6.061603 5.237932 0.828861
B 0.81330 3.67176 2.36110 -0.836259 -0.164951 -1.240923
Si 5.86484 3.18787 0.44406 6.618663 -4.088780 -0.173494
Si 2.51876 0.24429 5.51898 -0.064745 -0.706668 -0.479409
Si 4.91053 1.92860 3.34268 0.741348 0.608063 -0.335082
Si 2.66473 5.61591 1.83206 2.655728 -2.530129 -1.656180
10
config_type=Fe5B1Si4 Lattice="7.000000000 0.0 0.0 0.0 7.000000000 0.0 0.0 0.0 7.000000000" Properties=species:S:1:pos:R:3:forces:R:3 energy=-53.68091312 pbc="T T T"
Fe 1.19831 5.38211 4.62443 0.757994 -0.503059 0.249831
Fe 3.12223 6.95722 3.92663 -2.092355 -0.701388 0.453722
Fe 0.46695 6.32899 2.92370 1.045811 5.535017 0.789685
Fe 5.87562 2.79617 3.23774 -0.154572 0.220423 1.029064
Fe 4.54473 5.48006 4.79651 0.230096 -0.491473 -0.182865
B 6.81671 1.33214 2.40667 -0.385910 -0.826667 -0.018990
Si 5.73718 2.60197 1.05437 0.139762 0.203067 -0.367585
Si 5.05276 0.33920 3.08338 2.615649 0.272840 -0.279903
Si 6.41992 4.89492 2.17723 -2.834150 -4.208916 -1.109412
Si 4.08442 3.75077 6.88085 0.677674 0.500157 -0.563547
10
config_type=Fe5B1Si4 Lattice="8.000000000 0.0 0.0 0.0 8.000000000 0.0 0.0 0.0 8.000000000" Properties=species:S:1:pos:R:3:forces:R:3 energy=-52.49711474 pbc="T T T"
Fe 2.32878 1.57028 1.07971 1.429841 1.205728 -1.622000
Fe 4.60051 6.52710 3.64568 0.331232 -0.388159 -0.590599
Fe 3.96156 1.06281 2.48814 0.972535 1.186664 -0.933045
Fe 2.50004 1.10087 4.60766 -0.733500 0.980854 -0.081392
Fe 2.07438 0.46045 6.79852 0.227219 -0.253890 0.538793
B 3.25242 7.74272 3.49189 -0.181054 1.055011 1.387660
Si 2.91095 6.77149 0.93624 0.079693 1.718993 0.278893
Si 2.75959 3.23406 2.90198 0.022505 -1.306081 -0.174543
Si 2.27676 6.19965 3.19019 -1.553826 -2.712444 -0.692600
Si 1.00878 0.63696 2.31722 -0.594644 -1.486676 1.888834
10
config_type=Fe5B1Si4 Lattice="8.000000000 0.0 0.0 0.0 8.000000000 0.0 0.0 0.0 8.000000000" Properties=species:S:1:pos:R:3:forces:R:3 energy=-44.43765503 pbc="T T T"
Fe 1.09617 2.12015 4.03356 0.461664 -0.104834 -1.215881
Fe 7.24192 7.24580 2.68350 -2.335665 -0.090753 -1.038837
Fe 7.22475 6.09763 5.67449 0.559316 0.599789 -1.177826
Fe 5.38017 3.85577 1.74697 1.508435 -0.219981 1.446720
Fe 0.89396 5.15671 2.36882 -0.578362 0.169712 0.537160
B 7.05657 5.57372 1.47855 0.122592 0.539863 1.301525
Si 2.88124 3.60314 2.99061 -1.148458 -0.313307 -0.066758
Si 0.91560 7.38043 3.94474 0.032901 -0.072273 0.459607
Si 6.34695 1.50532 2.25526 0.461210 -0.484069 0.019711
Si 4.59177 0.29531 3.08573 0.916367 -0.024148 -0.265421
10
config_type=Fe5B1Si4 Lattice="8.000000000 0.0 0.0 0.0 8.000000000 0.0 0.0 0.0 8.000000000" Properties=species:S:1:pos:R:3:forces:R:3 energy=-46.92356551 pbc="T T T"
Fe 5.27103 2.92402 1.39449 -0.023484 3.220080 0.155256
Fe 1.27646 4.35421 4.29469 2.023654 -1.214730 0.252526
Fe 7.16391 3.84141 0.37405 -0.321933 -0.683249 0.549688
Fe 5.19736 4.34586 7.24987 -1.175149 0.230863 -0.368673
Fe 4.16334 5.56214 4.77020 0.117972 -0.949363 -1.522481
B 4.82030 4.99259 2.32110 0.768461 -0.753271 -0.184102
Si 3.03222 4.24598 2.60045 -1.306795 -0.034632 1.747439
Si 4.02751 3.49990 5.09620 -0.787860 -0.593608 0.689451
Si 2.04527 2.38631 5.95581 -0.057748 1.669237 -1.292069
Si 3.72408 5.82874 0.77893 0.762881 -0.891326 -0.027035
10
config_type=Fe5B1Si4 Lattice="8.000000000 0.0 0.0 0.0 8.000000000 0.0 0.0 0.0 8.000000000" Properties=species:S:1:pos:R:3:forces:R:3 energy=-47.83533173 pbc="T T T"
Fe 4.63926 1.71975 4.47608 -1.265881 1.799716 -1.336674
Fe 5.21315 5.26388 1.48618 1.257576 0.718797 1.910159
Fe 3.58737 6.41387 3.37587 1.499829 -0.988534 -0.038418
Fe 5.96402 0.08915 4.70532 1.892452 -3.072682 -1.539660
Fe 7.32364 6.05655 7.70836 -0.812308 0.098798 1.044154
B 5.20537 1.02767 6.02475 -0.111344 0.320445 1.716864
Si 7.75176 5.42494 1.89183 -1.211612 0.534909 -0.563841
Si 4.74674 4.12789 3.98787 -0.189376 1.223449 -1.642261
Si 0.24499 7.09672 4.85008 -0.805283 -0.163084 -0.268378
Si 6.00758 7.18081 2.23792 -0.254052 -0.471815 0.718053
10
config_type=Fe5B1Si4 Lattice="6.000000000 0.0 0.0 0.0 6.000000000 0.0 0.0 0.0 6.000000000" Properties=species:S:1:pos:R:3:forces:R:3 energy=-56.84972830 pbc="T T T"
Fe 5.21792 3.03363 4.71694 -0.236511 3.233081 -4.242465
Fe 2.27342 1.00055 5.96613 0.591838 0.607424 0.151280
Fe 5.25425 1.00990 3.99651 0.049080 -1.945722 -0.281373
Fe 1.31247 2.51660 2.60916 1.384411 -1.855748 1.091401
Fe 3.63277 5.54587 2.58397 1.206312 -0.305615 -0.809170
B 0.61320 2.10006 5.14115 2.502650 -1.538588 0.989471
Si 3.79242 1.87754 2.40335 -0.826703 -0.537253 0.689224
Si 3.88145 4.93220 5.97268 -0.665848 5.256798 -0.666559
Si 5.70001 3.80154 2.15175 -2.475378 1.846767 0.332723
Si 4.08698 2.94630 0.38439 -1.529851 -4.761144 2.745467
10
config_type=Fe5B1Si4 Lattice="10.000000000 0.0 0.0 0.0 10.000000000 0.0 0.0 0.0 10.000000000" Properties=species:S:1:pos:R:3:forces:R:3 energy=-32.73325315 pbc="T T T"
Fe 4.91943 7.65918 7.37089 -0.667944 0.753547 2.004241
Fe 5.84819 6.53558 0.40622 0.969114 0.113360 -0.046812
Fe 3.86795 7.96957 2.01205 0.623920 0.049731 -1.626055
Fe 8.11191 7.03494 1.51815 -0.043493 0.982922 -2.479109
Fe 6.24229 8.52762 0.93935 1.099067 0.282529 -0.091580
B 8.77839 7.47348 9.53451 -0.792623 0.678408 2.571801
Si 3.78306 7.24686 9.78051 0.053929 0.840533 0.314011
Si 0.57507 8.26191 9.29252 -0.898382 0.147825 0.290532
Si 2.53660 9.21080 0.40785 0.388127 -1.080424 -0.262441
Si 8.68183 9.63067 0.54514 -0.731715 -2.768430 -0.674589
10
config_type=Fe5B1Si4 Lattice="9.000000000 0.0 0.0 0.0 9.000000000 0.0 0.0 0.0 9.000000000" Properties=species:S:1:pos:R:3:forces:R:3 energy=-50.71188993 pbc="T T T"
Fe 3.76126 7.48153 4.76323 -0.284034 -0.549837 -1.511172
Fe 3.68133 7.85447 8.93291 -1.975710 1.457048 0.629818