15
Lattice="5.664536 0.0 0.0 0.0 5.664536 0.0 0.0 0.0 5.664536" Properties=species:S:1:pos:R:3:forces:R:3 config_type=Fe13Si1B1 energy=-108.19731369 pbc="T T T"
B        4.05901000       2.70568000       1.01305000      -1.63855300      -0.82904000       0.73367400
Si       2.82856000       0.10655000       3.62968000      -1.37485700       1.04288500       1.12851000
Fe       2.58297000       1.18377000       1.20948000       0.93367000       0.14656100       0.38941200
Fe       0.38153000       0.68989000       3.08804000       0.88723900       3.84366500       0.15858400
Fe       1.54589000       2.38203000       4.72041000      -2.07199500      -0.40415400      -0.21731400
Fe       0.00965000       3.55673000       0.57847000       1.87002200       0.46818400      -0.57360300
Fe       4.86453000       2.71686000       2.75028000       1.57660800      -1.70083300       1.51404400
Fe       4.62966000       0.98828000       5.06676000       0.07922500       1.31640700       1.29952100
Fe       0.62475000       4.47163000       2.76945000       1.95380600      -3.21231900      -1.53544400
Fe       4.87774000       4.67993000       4.41653000      -0.64493200      -0.53503200       0.30435400
Fe       3.59664000       2.87221000       4.83153000       0.23532500      -0.37357900      -1.60523300
Fe       0.66156000       0.50203000       0.73880000      -0.79576700      -0.85035100      -0.29863700
Fe       2.16986000       4.37529000       0.15492000      -0.00013300       0.94038800       0.69583500
Fe       3.84648000       4.71531000       2.05312000       0.75417200       0.77170900      -2.19861800
Fe       2.60819000       2.98871000       2.55518000      -1.76382900      -0.62449100       0.20491400
15
Lattice="5.664536 0.0 0.0 0.0 5.664536 0.0 0.0 0.0 5.664536" Properties=species:S:1:pos:R:3:forces:R:3 config_type=Fe13Si1B1 energy=-108.15566798 pbc="T T T"
B        4.14873000       2.95379000       1.06658000       0.16200100      -0.29917000      -0.39394100
Si       3.70970000       1.75376000       4.70342000       2.39954500       1.99334400       0.69658000
Fe       0.77141000       5.48369000       0.61772000       0.15863900      -0.70463600       0.73580300
Fe       2.70222000       5.62328000       2.66112000      -2.84701800       1.11988600      -2.77526600
Fe       2.40590000       1.49012000       0.76033000       2.44811900      -1.09619800       2.05304000
Fe       0.05981000       0.25678000       4.08407000      -0.72088300      -0.40435400      -1.12965000
Fe       2.69016000       5.46683000       4.60121000      -0.81406600      -1.20768000       2.79556400
Fe       1.47386000       1.76151000       4.03878000       0.25632200       2.31886200      -0.70750300
Fe       5.58209000       3.47185000       2.53703000       2.04828400       0.56513400      -0.37619200
Fe       2.39981000       3.74553000       0.37431000      -0.23425500       0.56240000       0.37900500
Fe       4.35312000       1.55651000       2.64463000       0.99871600      -1.26274600      -2.03362100
Fe       4.71996000       4.32124000       4.97431000      -0.09930100      -2.16645100       0.36829600
Fe       4.35696000       5.05523000       1.41829000       0.42683500       0.31250100      -0.90165400
Fe       0.47139000       2.05266000       0.60057000      -2.75315200       0.98470800      -0.10508100
Fe       3.41003000       3.62129000       2.91823000      -1.42978400      -0.71560000       1.39462200
15
Lattice="5.664536 0.0 0.0 0.0 5.664536 0.0 0.0 0.0 5.664536" Properties=species:S:1:pos:R:3:forces:R:3 config_type=Fe13Si1B1 energy=-107.93807169 pbc="T T T"
B        3.89991000       3.42526000       0.45422000       0.11547000      -0.03553900       1.12451100
Si       3.48762000       0.16630000       4.61337000       0.32574800       0.46308000      -0.01786500
Fe       2.84778000       1.82037000       0.82228000      -0.98232500      -1.42221600      -1.89337000
Fe       1.34857000       0.81784000       2.30075000      -0.53643500       0.46265000      -1.19653800
Fe       1.57642000       1.26355000       4.33118000       0.04619000       0.17232100       0.29400800
Fe       0.65713000       2.94926000       0.95396000      -1.72120200      -1.22782100       0.66296100
Fe       4.05988000       1.97076000       2.38888000       1.24013900      -1.25976700       1.55714700
Fe       5.41523000       1.91313000       4.86891000      -2.57043500      -0.52568200      -0.40262900
Fe       1.35795000       4.61467000       3.62292000      -1.17710100      -0.19986100       1.26666800
Fe       4.95776000       4.27854000       4.85033000       2.20080800       0.77958800      -0.24901600
Fe       2.90817000       3.15860000       4.25698000      -0.87756600      -0.39846100       1.25184100
Fe       4.97903000       5.64594000       1.36431000      -0.69131800      -0.04726100      -0.44322300
Fe       1.21860000       5.04312000       0.28941000      -0.01329800       1.97019200      -1.42146800
Fe       4.19049000       3.99341000       2.69223000       2.99720200       1.59092800      -0.45710200
Fe       2.24232000       4.14646000       1.80095000       1.64412400      -0.32215200      -0.07592500
15
Lattice="5.664536 0.0 0.0 0.0 5.664536 0.0 0.0 0.0 5.664536" Properties=species:S:1:pos:R:3:forces:R:3 config_type=Fe13Si1B1 energy=-111.97852358 pbc="T T T"
B        0.06916000       5.66432000       5.18689000       0.12008200      -0.64043800       0.01360000
Si       0.02740000       2.72248000       2.59682000      -0.95092500       0.36379500       0.29566700
Fe       0.14116000       5.54768000       2.85133000       0.08282300      -0.00674100       0.52027800
Fe       5.56722000       2.97052000       5.53670000      -0.67309900       0.24460700       0.18564600
Fe       2.56501000       0.00405000       5.40440000       0.68434000      -0.27592000       0.60718700
Fe       2.97079000       2.77487000       5.60913000       0.61990200      -0.30745300       0.59180600
Fe       3.14055000       2.58779000       2.39876000      -0.26535600       0.46856000       0.15364600
Fe       1.27023000       1.29362000       1.29220000       0.59662900      -0.36144800      -0.82067800
Fe       1.26884000       1.40412000       4.24821000      -0.00500300       0.79776500      -0.57479700
Fe       1.43809000       4.26211000       1.36341000       0.07769500      -0.05884300      -0.22592600
Fe       1.52070000       4.14480000       4.13170000      -0.18321100      -0.27105400      -0.71528600
Fe       4.46936000       1.09579000       0.98330000      -0.11971100       0.01004100       0.24750400
Fe       4.16783000       1.22547000       4.11325000       0.42899800      -0.08684700      -0.08842400
Fe       4.22673000       4.46813000       1.30140000       0.09689500      -0.37725000      -0.41990000
Fe       4.20815000       4.21553000       4.01300000      -0.51005900       0.50122500       0.22967700
15
Lattice="5.664536 0.0 0.0 0.0 5.664536 0.0 0.0 0.0 5.664536" Properties=species:S:1:pos:R:3:forces:R:3 config_type=Fe13Si1B1 energy=-111.93959828 pbc="T T T"
B        0.52210000       0.05440000       5.04153000      -0.83789800      -0.96014800      -0.42271900
Si       5.59498000       2.75302000       2.63746000      -0.41285400      -0.16722200       0.32382300
Fe       0.17766000       0.05624000       2.77011000      -0.22089500       0.44737300       1.17937900
Fe       5.59682000       2.78032000       5.61495000      -0.22239300       0.41310500      -0.03657000
Fe       2.71989000       5.37982000       5.43745000       0.17724800       0.17436200       0.47840000
Fe       2.70157000       2.72483000       5.65192000       0.89303700       0.73165300       0.81071700
Fe       2.97278000       2.68063000       2.60608000       0.64664100       0.39382500      -0.89779500
Fe       1.04462000       1.15381000       0.98518000       0.85892600      -0.28038300       0.02628300
Fe       1.65813000       1.50296000       3.98982000      -0.38663100      -0.26210300      -0.11433700
Fe       1.30631000       4.30849000       1.24352000      -0.41412900       0.11159100       0.24697100
Fe       1.58576000       4.06734000       3.99489000      -1.17533100      -0.00634600      -0.85725300
Fe       4.12820000       1.13618000       1.10587000       0.62554700       0.31979100       0.22031500
Fe       4.25787000       1.24949000       4.17529000      -0.08913900      -0.07677300       0.23295600
Fe       4.35495000       4.45297000       1.34581000      -0.13361000      -0.53467800      -0.51744000
Fe       4.41108000       4.43949000       4.32316000       0.69148200      -0.30404700      -0.67272800
15
Lattice="5.664536 0.0 0.0 0.0 5.664536 0.0 0.0 0.0 5.664536" Properties=species:S:1:pos:R:3:forces:R:3 config_type=Fe13Si1B1 energy=-111.86184603 pbc="T T T"
B        1.50863000       1.78767000       4.90152000      -0.44122900      -0.13378600       0.30200900
Si       4.79549000       2.24346000       2.10133000      -2.02834800      -2.06166200      -2.37230900
Fe       3.20380000       0.75276000       3.12970000      -0.26094900      -0.46491400       0.88121400
Fe       2.86828000       3.52346000       0.83472000       0.63525800      -0.40693500      -0.10677300
Fe       0.30208000       0.41203000       3.59178000       0.43152100       1.99959300       0.71104900
Fe       4.64149000       4.82814000       4.64319000      -2.32204000      -0.32641000       1.26424000
Fe       1.38623000       5.04883000       1.95913000       0.13404600      -0.76597900       0.26900800
Fe       0.01651000       0.69762000       0.56316000       0.43357300       0.50429600      -0.59615700
Fe       1.71843000       1.81951000       1.96274000      -0.50569400       0.44278300      -1.08150200
Fe       2.49328000       3.31853000       3.75571000       0.60663900       0.53722000       0.22889400
Fe       0.35204000       3.39611000       0.17394000       0.28417100      -0.58935200       0.45847800
Fe       0.11270000       3.44811000       3.40342000       2.52442400       0.78461300       1.86263000
Fe       4.37430000       4.86511000       1.96411000       0.02203300      -0.44143500      -0.21812100
Fe       1.91304000       5.29856000       5.45252000       0.85584700       1.12077600      -1.36953800
Fe       3.73798000       1.56980000       5.38787000      -0.36925300      -0.19880800      -0.23312100
15
Lattice="5.664536 0.0 0.0 0.0 5.664536 0.0 0.0 0.0 5.664536" Properties=species:S:1:pos:R:3:forces:R:3 config_type=Fe13Si1B1 energy=-121.96103282 pbc="T T T"
B        1.89945000       0.62627000       3.85277000      -2.50069800       2.16966800      -1.53918900
Si       0.20120000       2.04269000       2.64503000       1.02931600      -0.66199100      -2.72694900
Fe       2.66066000       5.42797000       2.26357000       0.53979700      -0.03646200      -1.31830900
Fe       2.90276000       2.67008000       2.15492000      -1.83815700      -0.38139400      -2.84113500
Fe       3.76617000       1.41579000       3.61058000       1.59818700      -1.99316500       0.96094000
Fe       4.35629000       3.78643000       3.20548000      -0.08184500       1.05317100       0.76552100
Fe       4.47628000       4.06991000       0.64852000      -0.83953300      -0.22453300       0.86736600
Fe       4.19523000       1.12987000       0.84517000       0.20926900       0.78044000      -1.95195400
Fe       1.20944000       0.98558000       0.54562000       0.36331500       0.64694800       1.15320100
Fe       2.93679000       5.24715000       4.85612000       1.78737200      -1.05335100       3.04321700
Fe       2.46429000       3.02068000       4.78866000      -0.08418600      -0.93215200       0.71303400
Fe       5.64539000       2.77685000       4.69631000       0.33002600      -0.76378800       3.33994500
Fe       1.14045000       3.92385000       0.99225000      -0.27335200       0.02348800       0.25089500
Fe       0.17432000       5.38924000       4.59788000      -0.87103600      -0.20642700       0.99417600
Fe       5.41134000       5.44443000       2.36685000       0.63152700       1.57954900      -1.71076000
15
Lattice="5.664536 0.0 0.0 0.0 5.664536 0.0 0.0 0.0 5.664536" Properties=species:S:1:pos:R:3:forces:R:3 config_type=Fe13Si1B1 energy=-109.57699008 pbc="T T T"
B        1.60964000       1.20953000       3.30762000      -0.01479600      -0.54483200       0.36412700
Si       1.95419000       3.78303000       0.40477000       2.58923000       0.78612200      -1.61162900
Fe       3.57229000       4.89724000       1.78218000      -0.69680300       0.94883800       2.04020100
Fe       3.21513000       2.00319000       1.86162000       1.30615200      -1.04311700      -1.34636300
Fe       5.12136000       1.05340000       3.05836000       0.48907600      -0.57242700       0.35981000
Fe       5.33303000       3.41064000       3.19935000      -1.19050900       0.64225800       0.16946300
Fe       4.69645000       3.56410000       0.59057000       0.42357200      -2.45414500       1.39631500
Fe       5.00397000       0.79608000       0.67759000       0.28054300       1.18762000       0.69531900
Fe       1.02131000       2.39370000       1.67631000      -1.48205000      -1.99677700       1.89497700
Fe       4.49205000       4.87623000       4.87240000      -1.22864200       1.13873400      -2.26444700
Fe       3.40200000       1.47027000       4.46233000      -0.01871000      -0.18409200       0.67173000
Fe       0.59504000       2.14210000       5.17631000       0.66645200      -0.32293300      -3.32851400
Fe       1.14446000       5.07983000       4.43636000      -0.37358200       1.06798600      -0.87155500
Fe       2.52599000       3.18146000       3.48749000      -0.80261000       1.79870400       1.25168000
Fe       0.91985000       5.18762000       1.86613000       0.05267700      -0.45193900       0.57888600
15
Lattice="5.664536 0.0 0.0 0.0 5.664536 0.0 0.0 0.0 5.664536" Properties=species:S:1:pos:R:3:forces:R:3 config_type=Fe13Si1B1 energy=-111.24757227 pbc="T T T"
B        2.53656000       2.62317000       3.66583000      -0.11566700      -0.22978700       0.53017200
Si       0.67483000       4.27329000       2.69225000       0.92910600       0.68145900       0.71622000
Fe       5.14560000       5.37767000       1.05479000      -0.04263700       0.54874800      -0.34508500
Fe       5.17725000       2.96978000       1.28337000      -0.94481700       0.15150400      -1.65556500
Fe       4.74580000       3.13666000       4.02461000      -0.25444200      -0.82574700      -0.11998600
Fe       0.33821000       1.51110000       2.57588000       1.22080500      -1.49602800       0.46012600
Fe       3.09808000       4.41167000       2.55098000       1.58954700      -0.62340300      -0.59486000
Fe       4.73088000       0.16933000       4.32731000       1.21238200      -0.98254900      -0.92008400
Fe       3.65998000       1.37781000       0.06620000      -0.53114300       0.39644200       0.40797800
Fe       3.63898000       1.27668000       2.55773000      -0.56432500       0.60761700      -1.09420600
Fe       3.30156000       4.03302000       5.51710000       0.66273100       0.68309200      -0.51252300
Fe       2.04972000       2.93776000       1.03536000      -1.23701100      -0.98796000       1.66434700
Fe       2.16302000       5.60665000       3.99134000      -0.76618900       1.59088200       1.80303200
Fe       0.95543000       1.84266000       4.95473000       0.27866900      -0.07002100       0.06014100
Fe       2.02568000       0.02468000       0.99960000      -1.43701000       0.55575000      -0.39970700
15
Lattice="5.664536 0.0 0.0 0.0 5.664536 0.0 0.0 0.0 5.664536" Properties=species:S:1:pos:R:3:forces:R:3 config_type=Fe13Si1B1 energy=-108.79062395 pbc="T T T"
B        5.36400000       3.87568000       4.45905000       0.44648400       0.57032200       0.28604800
Si       3.93387000       4.96403000       3.15711000      -4.30606800      -2.31482200      -2.68264300
Fe       3.00216000       0.92096000       1.44117000      -0.76996800       0.42082500      -0.07835300
Fe       1.34518000       5.62588000       2.73234000       2.41172500       0.19969700       0.20083700
Fe       0.44730000       2.09377000       4.98703000       1.17940300       0.68255400       0.66504100
Fe       0.30923000       3.79563000       2.39919000      -0.97580900      -1.20085800      -1.00234600
Fe       0.18648000       1.06356000       1.31692000      -0.60348600       1.79501500       0.12312700
Fe       4.00265000       2.83038000       0.00570000       0.03088500      -0.70677300      -0.45368100
Fe       5.37135000       0.30945000       4.05759000       2.43746500       1.21842000       2.05861100
Fe       2.32985000       3.12186000       1.52540000       0.40818200       0.55373600       0.67629300
Fe       2.77320000       0.82160000       4.63749000       0.11143500       0.28254000       0.06072400
Fe       1.20304000       4.94889000       5.64649000       0.50304000      -0.54997900       0.60819900
Fe       4.43330000       2.29054000       2.94368000      -1.10290800       0.42652200       0.72577900
Fe       4.45738000       5.14386000       0.73674000       0.07827300      -0.88309100      -1.20270400
Fe       2.20236000       3.55424000       4.11335000       0.15134500      -0.49410700       0.01507000
15
Lattice="5.664536 0.0 0.0 0.0 5.664536 0.0 0.0 0.0 5.664536" Properties=species:S:1:pos:R:3:forces:R:3 config_type=Fe13Si1B1 energy=113.06017811 pbc="T T T"
B        1.39848000       0.19193000       0.61048000      -4.08297800       9.29302800       8.69098400
Si       2.92490000       2.16030000       2.14060000      -2.63496600       9.58037000      -0.49561900
Fe       2.86073000       2.70503000       5.26584000       4.32356800      10.20896900      -4.70309300
Fe       4.47802000       3.64784000       3.04881000      -8.75739200       8.66530300      12.20431400
Fe       0.21576000       2.05514000       5.23160000     -18.24380600     -12.70694800      22.88283100
Fe       0.44166000       2.36030000       2.32519000       9.91181000      13.04098500      -5.34425400
Fe       2.03954000       3.82953000       1.07367000      -9.51630500       5.90074000      24.04305300
Fe       1.39295000       3.86962000       3.86875000       5.08493300      -5.56046400     -11.44166200
Fe       4.42805000       1.04262000       3.76613000      10.93879500       4.90624100      -3.25114800
Fe       4.44753000       1.10914000       0.85325000      15.14670800      12.45203200      -7.47268500
Fe       3.06886000       5.29358000       5.21060000      31.03933500     -34.73641400       1.35306500
Fe       4.80801000       3.61880000       0.94850000       7.81841300       1.86551900       0.92546600
Fe       0.75179000       0.26400000       3.08937000     -19.58866100       1.56533600      18.55626500
Fe       3.22665000       5.43114000       2.39493000      -7.30714900       7.24190400      -9.20324300
Fe       0.02250000       5.10600000       5.27962000     -14.13230600     -31.71660300     -46.74427400
15
Lattice="5.664536 0.0 0.0 0.0 5.664536 0.0 0.0 0.0 5.664536" Properties=species:S:1:pos:R:3:forces:R:3 config_type=Fe13Si1B1 energy=-108.9830283 pbc="T T T"
B        0.13992000       2.30465000       0.77632000      -2.78401400      -0.82058500       0.46110900
Si       2.50353000       2.08237000       3.22653000       0.57446500       0.76610200      -0.17485000
Fe       1.09387000       3.72736000       2.17845000      -2.33299800      -0.65384800       2.12861500
Fe       3.95659000       1.68198000       5.11388000       0.36857700       0.27726400       0.90410800
Fe       3.24055000       0.05102000       1.45794000       1.85872300       1.81044900       1.22583000
Fe       1.11690000       0.40651000       2.78471000       0.23956900      -0.40930100      -0.23173800
Fe       4.54933000       5.58716000       3.59286000      -0.31901000      -1.37235600       0.15251700
Fe       2.02209000       2.17177000       0.81391000       2.28654300       0.57567400       0.95002900
Fe       2.49600000       4.37528000       3.91048000       1.01885200       0.91593900      -0.12431400
Fe       1.55562000       0.82810000       4.97050000      -1.41574600      -0.55119900      -1.41023600
Fe       0.17703000       3.66356000       5.11473000      -1.08914900       0.22646500      -1.09412200
Fe       4.76800000       2.06437000       3.03043000       1.53276700       0.68813100      -0.95307900
Fe       4.01232000       3.47279000       1.22110000       0.71512400      -0.27128700       0.36009300
Fe       5.60104000       0.16966000       1.00251000      -1.92470400       0.60201900      -0.31574700
Fe       1.82975000       4.74627000       0.52226000       1.27100200      -1.78346900      -1.87821700
15
Lattice="5.664536 0.0 0.0 0.0 5.664536 0.0 0.0 0.0 5.664536" Properties=species:S:1:pos:R:3:forces:R:3 config_type=Fe13Si1B1 energy=-109.65230798 pbc="T T T"
B        1.23970000       1.21684000       1.81761000       0.02240300      -0.92458200      -1.06180500
Si       3.07189000       2.55814000       2.37729000       0.92613600      -2.00193200       0.14498800
Fe       2.67594000       1.93664000       0.14438000       1.05218400      -1.94787200      -1.49496300
Fe       4.74920000       4.02615000       3.98842000      -0.49730000      -1.66006500       0.56629400
Fe       0.54893000       2.35426000       5.02964000      -1.97561800      -0.67551400      -1.38065400
Fe       0.25564000       2.74635000       2.34546000      -0.86840700      -0.41443100       1.32126900
Fe       1.63550000       3.55443000       0.73824000      -0.48888900       3.16856100       1.25510600
Fe       2.22876000       3.78059000       3.85102000      -1.31981600       1.46516900       1.46473900
Fe       4.72248000       0.50588000       3.66593000      -0.71270500       3.02094600       0.39183300
Fe       4.62768000       1.43092000       0.84421000       1.50193800      -1.37189300       0.77865500
Fe       3.15408000       5.37779000       5.25471000      -0.42667500      -0.74829400      -0.33466100
Fe       4.26619000       3.81986000       0.88894000       0.91213400       0.12021100      -1.29565500
Fe       0.11201000       5.03254000       2.17229000       1.45291300       0.86596500      -0.38387900
Fe       2.73977000       5.56302000       1.85230000      -0.20427500       0.77886700       0.54403500
Fe       0.42610000       5.46996000       5.56246000       0.62597900       0.32486300      -0.51530300
15
Lattice="5.664536 0.0 0.0 0.0 5.664536 0.0 0.0 0.0 5.664536" Properties=species:S:1:pos:R:3:forces:R:3 config_type=Fe13Si1B1 energy=-108.689199 pbc="T T T"
B        2.82739000       5.39081000       3.38048000       0.18876500       2.21187000      -2.25782500
Si       4.24102000       2.13783000       2.44442000       1.18086900      -0.60038400       0.70871700
Fe       4.77212000       4.07688000       0.10316000       0.85767600      -0.81187700       1.37935300
Fe       4.99360000       4.34282000       2.65807000      -0.01731700       0.70924600      -0.20781800
Fe       2.94567000       2.48438000       0.44851000       0.56592500      -0.99853000       0.68749600
Fe       3.62955000       0.19554000       1.31641000      -0.39050000      -0.62721300      -0.17947900
Fe       1.46827000       4.56574000       0.71105000      -0.26867000      -1.15306000       1.20654900
Fe       1.99127000       1.56123000       4.17078000       1.34156200      -0.37508900       0.81283900
Fe       0.15899000       1.55723000       0.70023000      -0.25682700       0.27290300      -0.92964100
Fe       1.32552000       0.55223000       2.24464000      -0.63957200      -0.05266800      -0.82849800
Fe       4.37343000       0.34977000       4.53084000      -0.28341900       0.94949700       0.02883900
Fe       0.90563000       5.27350000       4.60870000      -0.37399500       1.00812700      -1.63240600
Fe       0.56096000       3.00708000       3.92504000      -1.24255900       0.16108800       0.48882400
Fe       2.98517000       4.03129000       4.56449000       0.33694400      -1.13050400       2.14920500
Fe       2.51893000       3.49758000       2.55620000      -0.99888100       0.43659500      -1.42615600
15
Lattice="5.664536 0.0 0.0 0.0 5.664536 0.0 0.0 0.0 5.664536" Properties=species:S:1:pos:R:3:forces:R:3 config_type=Fe13Si1B1 energy=-107.24392179 pbc="T T T"
B        4.55451000       2.71009000       4.53374000      -1.84241600       0.12273000       0.97605400
Si       4.96592000       1.35098000       3.17084000       0.03645700      -1.26959800      -1.72248200
Fe       0.76780000       2.71999000       4.50203000       0.99104400       1.22663600      -0.25483400
Fe       4.49381000       4.27144000       0.00500000       0.12771300       0.55300800       1.95499500
Fe       2.51506000       2.85470000       0.39067000       2.30796400      -0.07906800      -0.90014700
Fe       1.54798000       0.63209000       4.30335000      -0.41721700       1.31634800       0.94065600
Fe       1.57550000       5.22422000       0.43710000      -0.36283300      -2.19107200      -1.65623800
Fe       4.96774000       1.70667000       0.72272000      -0.02265400       0.17856400       0.52883500
Fe       2.90512000       2.71313000       3.39557000      -0.58520000       0.47465300      -1.14426300
Fe       4.70661000       4.56393000       3.57972000      -0.83607700       0.67294800      -0.44540600
Fe       3.01952000       5.58310000       2.04014000       4.08588500      -0.29222400       0.48578400
Fe       1.03216000       3.15651000       1.69807000      -1.92540100       0.16669000      -0.01219500
Fe       1.06159000       4.85855000       2.89660000      -1.39241900      -2.73695900       0.94700400
Fe       1.32246000       1.04627000       1.93989000      -1.17472900       3.57842300      -0.16514300
Fe       3.48550000       0.95436000       4.93839000       1.00988400      -1.72107900       0.46738000
15
Lattice="5.664536 0.0 0.0 0.0 5.664536 0.0 0.0 0.0 5.664536" Properties=species:S:1:pos:R:3:forces:R:3 config_type=Fe13Si1B1 energy=-106.6978718 pbc="T T T"
B        4.37602000       3.06287000       4.54969000      -3.95359300      -0.44382100       1.29634400
Si       1.65988000       0.39408000       0.41607000      -1.82881400      -0.97563400      -0.52171500
Fe       0.17468000       3.64106000       3.97541000       3.52115100       2.11680500      -3.70241700
Fe       3.99662000       4.13119000       2.33108000       0.27141100      -0.00984000       0.73103200
Fe       1.83468000       4.84243000       2.97817000       1.11127300       1.20450800      -0.82025900
Fe       4.31221000       5.64316000       4.08977000      -1.21997300      -0.08898100      -1.00559200
Fe       4.00188000       1.79872000       3.05317000       1.51415600      -0.19476200       0.54247900
Fe       0.28332000       0.54321000       2.11203000      -1.20445600      -0.05724300       0.78298300
Fe       2.04952000       2.34144000       2.71705000      -1.17771800      -0.15950800      -3.19997700
Fe       0.52847000       2.51099000       0.27749000      -1.54476400       0.22909900       3.45437000
Fe       3.58006000       0.29982000       1.02879000       2.20061000       0.80437000       1.76997400
Fe       3.94497000       2.58517000       0.68762000      -0.78968200      -0.85970600       1.11781900
Fe       2.22039000       3.16559000       4.70761000       2.57283600       0.55467500       0.75976100
Fe       0.91954000       1.26700000       4.28105000      -1.26251500      -1.19639100      -2.25143600
Fe       5.06813000       4.79731000       0.17338000       1.79007700      -0.92356900       1.04663300
15
Lattice="5.664536 0.0 0.0 0.0 5.664536 0.0 0.0 0.0 5.664536" Properties=species:S:1:pos:R:3:forces:R:3 config_type=Fe13Si1B1 energy=-631.90671415 pbc="T T T"
B        2.39909000       4.80306000       2.39586000       0.15091500       3.42831000       2.66407400
Si       0.93053000       2.35896000       2.55713000       0.99763900      -3.93734300       3.17963300
Fe       0.03471000       3.59515000       5.47725000       1.88747300      -7.74285900      -7.11958500
Fe       4.74993000       4.02388000       2.22528000      -2.66422000       2.18549900      -2.97641100
Fe       2.56765000       3.21929000       3.98483000      -2.71008400       2.38929400      -9.84525000
Fe       4.56553000       1.24292000       1.41529000      -1.42379200      -5.50185400     -24.41161800
Fe       2.58268000       4.96858000       5.63402000      -2.57484200       6.67441700      -8.09274800
Fe       2.57294000       0.79172000       2.65613000      -8.33543900       0.26935600      -0.00977300
Fe       0.21829000       0.42035000       4.97786000       5.16993300      29.35098100      46.22827100
Fe       3.85668000       5.30592000       3.71065000       0.25671300       0.21689800      -2.50037900
Fe       4.40135000       1.98927000       3.54360000       4.73428800      -3.43124900      12.48961600
Fe       0.76701000       4.75830000       2.94205000       6.97102600       2.12799900       3.77383600
Fe       1.68294000       1.83497000       4.97008000      -9.29271200      -7.33132800      -6.30259300
Fe       2.61300000       3.08267000       1.17263000       0.59653000      -8.61029800      -6.68625000
Fe       0.91492000       0.26448000       1.28365000       6.23657300     -10.08782200      -0.39082200
15
Lattice="5.664536 0.0 0.0 0.0 5.664536 0.0 0.0 0.0 5.664536" Properties=species:S:1:pos:R:3:forces:R:3 config_type=Fe13Si1B1 energy=-111.64761788 pbc="T T T"
B        5.32248000       0.08851000       0.29220000      -0.16202200       0.12158600       0.18218200
Si       1.24306000       4.25251000       4.47844000      -0.12576500      -0.02362200      -0.13582400
Fe       5.57259000       5.54993000       2.76192000       0.02289600      -0.01120700       0.06651300