10
Lattice="8.0 0.0 0.0 0.0 8.0 0.0 0.0 0.0 8.0" Properties=species:S:1:pos:R:3:forces:R:3 config_type=Fe5B5 energy=-50.43373587 pbc="T T T"
Fe       3.18451000       6.72776000       5.69741000       1.95603000       5.60171700       8.72570100
Fe       7.87587000       6.33736000       5.64219000       2.64602100      -1.70973400       0.16438900
Fe       6.20926000       7.33878000       6.68134000      -0.55107200       0.06618200      -0.10753200
Fe       5.08404000       7.98056000       0.30007000      -0.95689600       0.13953500       0.67591700
Fe       6.42127000       6.99595000       4.37343000      -1.70213300      -0.60867100      -1.50685300
B        1.89824000       7.12316000       4.17318000      12.49015000      -5.56008800      -4.15437300
B        3.03760000       5.89937000       4.38720000       6.33912400      -4.50266000     -11.65907500
B        1.78804000       5.51336000       4.87840000      -7.45955600      -0.76429300       2.90374400
B        4.68687000       5.65480000       4.32361000       0.34968100       2.36355100       0.52418500
B        0.77913000       7.58052000       4.60340000     -13.11135000       4.97446200       4.43389700
10
Lattice="8.0 0.0 0.0 0.0 8.0 0.0 0.0 0.0 8.0" Properties=species:S:1:pos:R:3:forces:R:3 config_type=Fe5B5 energy=-49.94885365 pbc="T T T"
Fe       5.73114000       3.14885000       3.02833000       0.68339700      -0.00585400       0.21699900
Fe       7.82128000       1.40297000       4.47873000      -1.37591000       1.34436900       1.54809700
Fe       3.65436000       3.54137000       2.98747000      -2.36713000      -4.47908900       1.36413800
Fe       3.89394000       0.08511000       2.83782000       0.09502700       4.69700900       2.25334300
Fe       1.83407000       1.00258000       3.48264000       0.35764900      -0.58610000       0.33667800
B        2.37052000       7.59442000       4.85394000       2.50111000      -0.02043700      -2.70063700
B        1.21859000       0.43806000       5.35792000      -1.43501700       1.08491100       0.09277900
B        3.54713000       6.51880000       2.62638000      -0.71478000      -3.77029400      -0.27430500
B        7.06589000       2.31572000       6.08974000       0.82294600      -1.05227700      -1.97502300
B        4.16905000       5.03085000       2.53099000       1.43270900       2.78776200      -0.86206900
10
Lattice="6.0 0.0 0.0 0.0 6.0 0.0 0.0 0.0 6.0" Properties=species:S:1:pos:R:3:forces:R:3 config_type=Fe5B5 energy=-60.94802185 pbc="T T T"
Fe       2.34431000       5.62264000       5.27173000      -2.01436700       0.37330600      -0.38562300
Fe       0.45583000       2.28211000       2.91271000      -0.07070300       0.84780200      -0.26108100
Fe       3.01172000       5.07285000       2.36785000      -1.46740600       0.99082800       0.81413100
Fe       5.19118000       5.42907000       1.53145000      -1.32020900      -1.37247300      -0.22163400
Fe       0.76745000       0.60376000       1.23120000       2.82922000       0.51771200      -0.23730000
B        5.78266000       0.03261000       5.15438000       2.05095300       0.74203900       0.08866300
B        0.94597000       0.46054000       3.54093000       0.00070700      -1.83656700       0.90007300
B        0.95033000       4.68637000       2.55005000      -0.53113500       0.79669200      -0.09627900
B        4.18362000       5.96082000       5.40522000       1.15097500      -0.41741600      -0.46670100
B        5.21932000       0.01378000       3.56325000      -0.62803600      -0.64192200      -0.13424900
10
Lattice="8.0 0.0 0.0 0.0 8.0 0.0 0.0 0.0 8.0" Properties=species:S:1:pos:R:3:forces:R:3 config_type=Fe5B5 energy=-50.47586956 pbc="T T T"
Fe       0.94430000       7.18623000       5.15856000      -1.92197600      -1.21185100      -2.06788800
Fe       7.44992000       6.24699000       6.39996000      -1.46170300      -0.00345600       1.60691000
Fe       7.16624000       6.03237000       1.29740000      -4.38868200      -1.53575500      -3.49495000
Fe       5.14967000       7.42987000       7.71171000       1.58700000      -1.97291100       1.73712400
Fe       0.62290000       6.60891000       2.15190000       4.63822700       2.04777900       2.81379100
B        4.15583000       0.34925000       6.70226000      -3.94624900       0.15507600      -2.93915600
B        1.17013000       6.56271000       7.20790000      -4.98618400      -2.18173400       0.94197400
B        2.46698000       7.16255000       7.18789000       8.58419600       0.36053500       1.54113000
B        2.34857000       0.07278000       5.52359000       5.35466500       2.97238600       0.55450500
B        1.51530000       0.26575000       6.85681000      -3.45929300       1.36993200      -0.69344000
10
Lattice="8.0 0.0 0.0 0.0 8.0 0.0 0.0 0.0 8.0" Properties=species:S:1:pos:R:3:forces:R:3 config_type=Fe5B5 energy=-48.40307603 pbc="T T T"
Fe       0.49562000       3.66182000       4.11174000       0.36471200       0.16486600       0.74134800
Fe       1.69144000       0.97882000       3.51520000      -1.35965000      -0.21989900      -0.66197300
Fe       0.48528000       2.54712000       1.95338000       0.18449100      -0.26339600      -0.53357100
Fe       1.26455000       6.44180000       0.40785000      -1.00419600       0.94429100       1.70878200
Fe       2.29664000       4.00242000       2.65150000      -1.64724300       0.08030500       0.19718100
B        0.41190000       5.68554000       3.94145000       0.88465500      -0.37325300      -2.34775200
B        0.13661000       2.25172000       6.30686000      -1.86843900       0.35906300       1.32193700
B        0.68759000       7.22868000       2.24977000       0.88566600      -0.04874000       0.39722700
B        7.85355000       0.92987000       0.46094000      -0.63788100       1.69743200      -0.80896000
B        6.84923000       2.27154000       7.61226000       4.19788600      -2.34067000      -0.01421800
10
Lattice="8.0 0.0 0.0 0.0 8.0 0.0 0.0 0.0 8.0" Properties=species:S:1:pos:R:3:forces:R:3 config_type=Fe5B5 energy=-45.83706909 pbc="T T T"
Fe       4.37353000       3.92478000       6.73122000      -2.28816200       0.00305100      -0.61480200
Fe       0.84328000       4.77301000       3.80481000       0.94058600       0.05860200       1.88085500
Fe       7.78331000       4.27562000       1.75567000       0.38421300       0.10523900      -0.54839800
Fe       6.09666000       6.57290000       7.24224000       0.59196600      -1.18901300      -0.46540400
Fe       0.98825000       3.46521000       6.60936000       0.34139600       0.69073100      -0.62859900
B        2.27844000       4.84113000       5.29447000      -1.38759000      -1.42094200       0.49323400
B        0.56809000       5.35414000       6.11994000       1.50484400      -1.88218800      -1.35409100
B        1.64459000       2.28724000       5.24416000       0.67236300       2.32046700       0.04519200
B        2.42075000       3.81697000       3.74110000      -1.16826600      -0.13576300       1.89474300
B        2.69075000       2.58491000       6.59197000       0.40865000       1.44981600      -0.70273100
10
Lattice="9.0 0.0 0.0 0.0 9.0 0.0 0.0 0.0 9.0" Properties=species:S:1:pos:R:3:forces:R:3 config_type=Fe5B5 energy=-51.62047946 pbc="T T T"
Fe       6.25422000       0.27183000       7.02998000       0.18635200       0.18171600       0.74045000
Fe       0.99311000       5.16613000       8.55786000       0.41706300      -1.22328700      -0.47571700
Fe       8.81129000       3.68755000       6.87793000       0.12019200      -1.53225500       1.09671300
Fe       0.66882000       7.38028000       6.77199000       0.18469400      -0.12052100       0.13916100
Fe       0.43223000       1.84053000       8.16998000      -0.93794500       0.33205900      -0.57352100
B        7.42084000       1.63839000       6.83946000       3.09204100       0.38032100      -1.90774900
B        6.91627000       2.33916000       8.08825000       0.23163400       0.51129500       1.30340100
B        0.69106000       0.27458000       7.20028000      -0.67529500       0.24938600       0.04345800
B        8.91154000       5.60179000       7.19225000      -0.83853500       0.43277200      -0.64045800
B        1.84514000       2.78950000       7.53480000      -1.78020100       0.78851400       0.27426300
10
Lattice="10.0 0.0 0.0 0.0 10.0 0.0 0.0 0.0 10.0" Properties=species:S:1:pos:R:3:forces:R:3 config_type=Fe5B5 energy=-39.10245495 pbc="T T T"
Fe       0.77834000       6.16177000       3.05271000       1.12915400      -1.07117600       6.12482400
Fe       0.84162000       7.27365000       9.63405000      -0.57851900       1.21306400      -0.16848800
Fe       0.22427000       7.73291000       5.30845000       0.37703100       0.71797100      -0.55515700
Fe       1.03052000       5.46553000       1.37845000       0.67661400      -1.54843200      -4.51178600
Fe       4.60352000       3.15475000       8.69153000       0.05184200      -0.09498900      -0.05501300
B        9.90048000       8.42843000       7.20566000       3.71626700       1.30488700       0.44336600
B        9.99060000       7.06888000       1.73172000      -0.31829500       1.26766100      -3.50404400
B        1.96466000       8.54100000       8.37852000      -0.87773500      -2.78579900       2.20595600
B        0.23017000       7.84185000       3.09196000      -0.80436700       1.75664100       1.99704000
B        1.36711000       9.59109000       7.49004000      -3.37199100      -0.75982700      -1.97670000
10
Lattice="9.0 0.0 0.0 0.0 9.0 0.0 0.0 0.0 9.0" Properties=species:S:1:pos:R:3:forces:R:3 config_type=Fe5B5 energy=-39.89517436 pbc="T T T"
Fe       6.54906000       0.05296000       0.40968000       0.63967900       0.70728000      -0.10426700
Fe       0.41975000       2.97607000       5.24587000       0.46387200       1.53893100       0.14640500
Fe       8.91204000       2.59723000       8.59300000      -0.45811800       0.11218100      -0.26657100
Fe       1.46922000       2.31029000       7.22497000       0.33416900       1.61461900      -1.92728400
Fe       1.14601000       2.43503000       1.46508000       1.18172000      -0.14559000      -0.54663200
B        4.51738000       2.32384000       2.52698000      -2.77476300      -0.62676200      -0.29899000
B        1.55813000       4.80659000       6.41668000      -1.63150000      -3.42552800      -0.66128100
B        2.69309000       2.24657000       2.58551000       0.65831100       0.61717500      -0.62033600
B        0.81369000       2.74879000       3.12771000       0.99317200       0.34595600       4.44965600
B        1.94774000       1.84863000       8.94193000       0.59345800      -0.73826300      -0.17070100
10
Lattice="9.0 0.0 0.0 0.0 9.0 0.0 0.0 0.0 9.0" Properties=species:S:1:pos:R:3:forces:R:3 config_type=Fe5B5 energy=-46.99202601 pbc="T T T"
Fe       2.53475000       6.30224000       4.87814000       0.61069700       0.61801300       1.77418500
Fe       4.56987000       1.18638000       0.04874000       1.24816900      -1.13378400      -1.61490700
Fe       5.73534000       0.60139000       4.57418000       0.09584600       0.11951700       1.43534100
Fe       0.87257000       7.49908000       8.30538000      -0.04830300      -0.07986200      -0.16029500
Fe       5.02941000       8.43120000       6.54923000      -1.36253200      -1.38557500       0.07636100
B        5.90367000       8.76718000       8.26066000       2.22037400       0.62945800       0.22817500
B        7.57231000       8.34447000       8.79214000      -0.79468300      -0.02233800      -1.50072300
B        5.95932000       1.01891000       6.80442000      -0.62194300      -0.70290500       0.88158300
B        3.57201000       7.22591000       7.52790000       6.32737600       6.00167500      -4.08445500
B        2.63843000       6.37462000       8.04813000      -7.67500200      -4.04419900       2.96473500
10
Lattice="10.0 0.0 0.0 0.0 10.0 0.0 0.0 0.0 10.0" Properties=species:S:1:pos:R:3:forces:R:3 config_type=Fe5B5 energy=10.69312348 pbc="T T T"
Fe       9.20893000       2.05544000       6.72949000      -1.15566500      -2.36420500      -0.40874700
Fe       7.05183000       1.51879000       7.51931000       0.17348200      -0.78418200      -0.34049900
Fe       9.02270000       9.53483000       7.79842000      -1.58691400       1.54301000      -1.23680900
Fe       3.20406000       1.01524000       7.59290000      -0.60870000       1.11248300       0.45876900
Fe       5.75672000       9.39143000       8.44070000       1.01518500       0.56528500      -1.27354800
B        4.44601000       6.85581000       1.76223000      -3.96353900       2.55882600       5.07784700
B        0.63075000       2.99488000       7.24698000      -1.05778400      -0.96980800      -0.53649100
B        3.41767000       2.19008000       0.11750000      -1.03392900      -0.71142500      -2.20467000
B        2.98295000       7.13533000       2.44367000       6.17957900       0.16325000      -0.38063800
B        1.84908000       3.66122000       7.77875000       2.03828700      -1.11323300       0.84478700
10
Lattice="11.0 0.0 0.0 0.0 11.0 0.0 0.0 0.0 11.0" Properties=species:S:1:pos:R:3:forces:R:3 config_type=Fe5B5 energy=-28.82792775 pbc="T T T"
Fe      10.05071000       9.42565000       1.02379000      -2.72977700      -1.45446200      -1.20424100
Fe       9.79953000       3.74698000       2.94230000      -0.07099400      -0.01796200      -0.56698600
Fe       4.42650000       9.45041000       8.10922000       0.95732800       0.91494000      -1.76184100
Fe       7.83669000       1.54131000       8.97048000       0.37041800      -0.32798700       1.30493500
Fe       6.66373000      10.45279000       3.40448000      -0.87577600       0.06338800       0.95764000
B        9.87109000       2.97408000       0.40889000      -0.48043400      -0.04079200       0.17223500
B        4.59736000      10.74705000       5.74422000       0.42554200      -0.92259900       0.55555300
B       10.60633000       2.74873000       1.73282000       0.24023200      -0.96249100      -0.90092000
B        7.49876000       8.62992000       9.39067000      -0.46715900       0.43043300       0.05659200
B        0.22722000      10.31530000       1.60993000       2.63061900       2.31753100       1.38703400
10
Lattice="11.0 0.0 0.0 0.0 11.0 0.0 0.0 0.0 11.0" Properties=species:S:1:pos:R:3:forces:R:3 config_type=Fe5B5 energy=-26.26908379 pbc="T T T"
Fe      10.05312000       4.39200000      10.95164000      -1.06060200      -0.99314400      -1.22687900
Fe       8.23826000       3.51283000       9.05067000       0.47286300      -1.07397700      -0.06776000
Fe       9.67126000       1.69027000       8.10739000       1.41819300       0.25055300       0.58606100
Fe       0.67320000       5.98171000      10.35545000       0.92623700       0.56082700      -0.49242400
Fe       1.94313000       3.44825000       9.37597000      -0.49911400       2.51065200       0.88302500
B        7.90810000       1.85867000       7.90794000      -3.10369900      -1.73622700      -0.94577800
B        6.57906000      10.34858000       7.49129000       0.84356600       2.73506400       2.06740200
B        2.44454000       5.46642000      10.03444000       0.32509100      -2.11284900      -0.47358700
B        7.16456000      10.96270000       9.18488000      -0.64019400      -0.01617100      -3.27779400
B        6.73544000       0.78092000       6.76806000       1.31766000      -0.12472800       2.94773300
10
Lattice="9.0 0.0 0.0 0.0 9.0 0.0 0.0 0.0 9.0" Properties=species:S:1:pos:R:3:forces:R:3 config_type=Fe5B4Si1 energy=-49.09992247 pbc="T T T"
Fe       3.68997000       7.19940000       7.25677000       1.55165500       1.02448200       0.38526000
Fe       6.76727000       3.29587000       8.21367000       0.56158700       0.45268100       1.02393200
Fe       5.91089000       6.79931000       6.35169000      -1.00626700      -0.98906800       0.42660000
Fe       8.49128000       3.48367000       6.17121000      -2.45577900      -0.04501800       0.76496400
Fe       6.09660000       1.20313000       7.16272000      -0.62314300       0.50986500       0.45669900
B        7.60041000       3.19243000       1.01340000       0.68039800      -2.60699600      -2.18015400
B        4.53303000       8.84157000       7.98423000       0.79381000      -1.05570700      -1.88753800
B        5.88152000       4.62127000       5.97464000      -0.19024600       5.82445900      -0.09032000
B        6.18805000       3.25973000       6.32177000       1.66485500      -5.27526700       0.50019200
Si       7.07346000       4.73527000       1.66904000      -0.97687000       2.16057000       0.60036500
10
Lattice="10.0 0.0 0.0 0.0 10.0 0.0 0.0 0.0 10.0" Properties=species:S:1:pos:R:3:forces:R:3 config_type=Fe5B4Si1 energy=-43.68208374 pbc="T T T"
Fe       5.10952000       8.98780000       2.15927000      -1.45015400      -0.18856100      -0.32978300
Fe       4.12621000       4.06450000       3.57641000       0.08691600      -0.62444900      -0.98107900
Fe       5.02550000       6.07058000       1.06325000      -0.34250300      -0.79063600       0.77063300
Fe       5.57966000       3.66044000       0.55467000       2.66824600       2.84419800       5.17720800
Fe       3.55846000       1.50960000       3.14277000      -1.13460600       1.03376400       0.37265600
B        3.77102000       0.62189000       9.72449000       0.16381700       1.17098400       2.31488700
B        4.92002000       0.87087000       2.31475000       0.27325600      -0.42163200      -1.36292700
B        4.87186000       2.81028000       9.49394000      -3.54495500      -4.31325900      -3.95375100
B        3.26085000       0.31227000       1.57866000       1.69481900      -0.10966700      -0.93953700
Si       2.64549000       8.76855000       2.93833000       1.58516400       1.39925700      -1.06830700
10
Lattice="11.0 0.0 0.0 0.0 11.0 0.0 0.0 0.0 11.0" Properties=species:S:1:pos:R:3:forces:R:3 config_type=Fe5B4Si1 energy=-45.12538125 pbc="T T T"
Fe       9.82201000       5.87038000       5.05216000       0.81509800      -1.38894200       1.81548700
Fe      10.91248000       7.02499000       7.58339000      -2.72961300       0.04920400      -2.76362500
Fe       0.54243000       4.56624000       6.56217000       0.52476100       0.90151600       0.13468400
Fe       6.42506000       3.70216000       8.44562000      -1.91217700       0.04099400       1.13506900
Fe       5.12999000       2.62177000      10.89390000       0.56703700      -0.55118000       0.23756100
B        1.25634000       6.79216000       8.47897000       3.63352200      -1.44692300       0.33865400
B        9.93092000       3.39712000       6.37718000      -6.24041100       4.24925700      -5.83119300
B        2.06596000       5.42838000       7.60698000      -1.82241700       1.42117700       0.77087100
B       10.91546000       2.92531000       7.16446000       5.68969800      -2.78021000       4.62049200
Si       3.46349000       4.13546000       9.67908000       1.47450100      -0.49489300      -0.45799900
10
Lattice="11.0 0.0 0.0 0.0 11.0 0.0 0.0 0.0 11.0" Properties=species:S:1:pos:R:3:forces:R:3 config_type=Fe5B4Si1 energy=-104.24665719 pbc="T T T"
Fe       7.34389000       4.76165000       3.40474000      -3.83972500      -2.54559600      -5.02783300
Fe       7.59376000       0.13125000       1.77304000      -0.48255300      -3.45017400      -3.53608300
Fe       5.62883000       4.02679000       0.89265000      -4.05289700      -3.25409600      -1.13426700
Fe       4.19540000       1.76652000       9.23637000      -1.53526900       0.04470900      -2.51843300
Fe       5.74373000       0.75303000       2.39566000      -0.83444000       1.76907200      -4.05588000
B        8.06839000       1.80496000       1.39848000      -4.58468600       1.62107300      -2.86205700
B        6.54252000       4.91334000      10.87300000      -0.46541500      -0.43721000      -5.19141900
B       10.88885000       8.60128000       5.25791000      20.94563200       6.56684400      29.18997000
B        6.78887000       2.83403000       2.01740000      -1.32250800      -0.49459400      -3.74993200
Si       7.12257000       2.90502000       9.99844000      -3.82813800       0.17997200      -1.11406600
10
Lattice="11.0 0.0 0.0 0.0 11.0 0.0 0.0 0.0 11.0" Properties=species:S:1:pos:R:3:forces:R:3 config_type=Fe5B4Si1 energy=-36.7881493 pbc="T T T"
Fe       0.30122000       0.64940000       9.30046000       0.88583100       1.08028000       1.19658900
Fe       9.01814000      10.84216000       2.79118000       0.19987600       1.57827600      -0.54516300
Fe      10.31785000       7.40343000       4.40557000      -0.43765500       0.42919500      -0.56746100
Fe       1.92182000       2.12705000      10.58054000       0.19807900      -0.19174500      -0.03547900
Fe       5.08745000       1.68660000       9.87110000      -0.89263200      -0.02379900       0.11895800
B       10.82629000       0.03248000       3.28415000       0.65571600       2.85231200      -0.71121400
B        0.50223000       1.65081000       3.01384000      -3.34314400      -2.25703800      -0.89086100
B        8.69004000       0.82926000       1.15596000       1.44261300       0.56618200       2.35103100
B        9.89350000       1.87390000       2.35558000       1.09024600      -2.82591100      -0.62219500
Si       8.40854000       8.99131000       2.04321000       0.20106900      -1.20775100      -0.29420400
10
Lattice="11.0 0.0 0.0 0.0 11.0 0.0 0.0 0.0 11.0" Properties=species:S:1:pos:R:3:forces:R:3 config_type=Fe5B4Si1 energy=-37.20931707 pbc="T T T"
Fe       1.72611000       0.24070000       9.58675000      -0.67976400       1.02890700       1.75149400
Fe       7.54558000       4.86453000       3.06715000       0.15174600       0.23102100      -0.08595400
Fe       5.62982000       1.78384000       7.49908000       0.11830700      -0.48635700       0.83326700
Fe       6.28334000       0.33527000      10.00096000      -0.34206000       0.47042800      -0.83475700
Fe       9.42666000       7.93655000       0.57192000       0.85285400       1.04557000      -0.42457300
B        1.29347000       7.58023000       5.33413000      -0.02254300      -0.00376400      -0.03808400
B        1.82534000       3.89248000      10.94957000      -0.57279200      -1.93289800      -1.25733200
B        0.71485000       3.12041000       9.98239000       3.06997300      -0.21274800       1.59235200
B        2.51119000       2.46381000      10.59693000      -2.81988400       0.14911800      -1.17737500
Si      10.83239000       9.99205000      10.79967000       0.24416400      -0.28927600      -0.35903700
10
Lattice="11.0 0.0 0.0 0.0 11.0 0.0 0.0 0.0 11.0" Properties=species:S:1:pos:R:3:forces:R:3 config_type=Fe5B4Si1 energy=-35.44229305 pbc="T T T"
Fe      10.53017000       9.79833000       0.21374000      -1.04417100       0.28584300       0.91860600
Fe       5.34907000       0.90679000       4.51434000       0.59803100       0.84815200       0.73735000
Fe       9.28597000       1.73061000       4.16887000      -0.63175900      -2.20796200       0.42670300
Fe       9.33968000      10.24434000       4.47275000      -2.87563400       1.26201500       0.65148600
Fe       2.33220000       8.94776000       2.14360000      -0.47418400       0.21897300      -0.14386400
B        7.23473000      10.26830000       4.91105000      -0.17886300       0.88146200      -1.78178700
B        2.19233000       9.91981000       8.81336000      -2.98860000      -0.57924700       1.43252100
B        0.80656000       9.32998000      10.15321000       6.23375300      -1.75129300      -1.10383500
B        5.40855000      10.22286000       4.13623000       1.77528400      -0.17492600       0.99707800
Si      10.92523000      10.08099000       8.81200000      -0.41385600       1.21698400      -2.13425700
10
Lattice="12.0 0.0 0.0 0.0 12.0 0.0 0.0 0.0 12.0" Properties=species:S:1:pos:R:3:forces:R:3 config_type=Fe5B4Si1 energy=-3.39440947 pbc="T T T"
Fe       3.87619000       6.28256000       8.81197000       1.90514600      -0.24057800      -0.17658500
Fe       7.99494000       4.53490000       1.27350000      -0.70823600       2.47845200      -1.27377400
Fe       6.90223000       6.33143000       9.09903000      -3.03833300      -0.47123100      -3.52251400
Fe       6.44243000       7.08341000       2.32210000       0.57661700      -1.85571000      -2.12281700
Fe       2.72525000      11.87407000       1.33837000      -2.34796000       0.42677600       0.97004700
B        0.35375000       0.27873000       2.18682000       1.15624700      -0.07204900      -0.46677500
B        8.49345000       6.38394000       0.03210000      -3.47936400      -1.77148400       0.20471900
B        7.75319000       6.60951000      10.45419000       2.20080100      -0.07996200       4.68736500
B        6.59042000       5.65702000       0.40345000       3.27555500       1.06599100       1.21403200
Si       3.48099000       3.34087000       6.88667000       0.45952600       0.51979300       0.48630200
10
Lattice="12.0 0.0 0.0 0.0 12.0 0.0 0.0 0.0 12.0" Properties=species:S:1:pos:R:3:forces:R:3 config_type=Fe5B4Si1 energy=26.88532261 pbc="T T T"
Fe       7.01279000       9.72886000      -2.18224000      -0.53744200       0.00775000       0.23943100
Fe      -6.15849000      -9.56515000       6.62243000       0.89201400      -1.02031100       1.09839600
Fe      -8.18842000      -3.44883000      -7.54256000      -0.11064000      -0.03897300      -0.26343700
Fe       9.72382000       9.85441000      -6.47071000      -0.36616900       0.62674300      -0.49630800
Fe       9.47471000       5.89651000      -7.93267000      -0.14028500      -0.05710000      -0.20942500
B      -10.15794000       4.20497000      -0.56859000      -0.22151600       0.39849100       0.00484100
B        6.35472000       6.54196000      -0.34748000      -0.06891400       0.39154400      -0.14243600
B        6.28405000       1.39650000      -2.23643000       1.26990000       0.40656000      -0.18250900
B       -3.35195000       1.16956000      -6.80164000      -0.41306600      -0.43071200       0.14918400
Si     -10.33769000      -0.46946000      11.26739000      -0.30388200      -0.28399200      -0.19773600
10
Lattice="12.0 0.0 0.0 0.0 12.0 0.0 0.0 0.0 12.0" Properties=species:S:1:pos:R:3:forces:R:3 config_type=Fe5B4Si1 energy=-39.0904098 pbc="T T T"
Fe       7.30950000      11.25145000       9.61980000      -1.35258900       0.14423700      -1.32170300
Fe       5.76987000      10.82000000       7.39623000      -0.42399500      -0.37722700      -1.25274600
Fe       5.40784000       0.07582000       5.02180000       2.68491100       7.71730200       1.61268000
Fe       4.67751000       3.22862000       0.42060000       0.23277000      -0.40856100       0.30394400
Fe       4.22006000       1.24300000       8.39403000       0.73423100      -0.66193400      -0.45357700
B        3.63390000       9.45681000       5.26005000       1.70498900       1.35544800      -0.12947900
B        6.01529000       1.55133000       3.36061000      -0.76017300      -1.32157600       0.63359500
B        4.96010000      10.59739000       4.84717000      -3.08119600      -7.33867700      -0.08731400
B        5.82143000       0.47322000       7.91652000       0.57310400       1.11757000       0.65222000
Si       6.65834000      10.31033000      11.36507000      -0.31205200      -0.22658000       0.04238100
10
Lattice="6.0 0.0 0.0 0.0 6.0 0.0 0.0 0.0 6.0" Properties=species:S:1:pos:R:3:forces:R:3 config_type=Fe5B4Si1 energy=-53.4967769 pbc="T T T"
Fe       5.24545000       5.60965000       0.13090000       0.25933400      -0.17310400       0.19850300
Fe       3.41002000       4.88705000       2.10774000       0.43029000      -0.74959900      -1.39175800
Fe       1.24005000       4.11446000       1.54575000       0.66384900       1.75113700      -0.17619200
Fe       3.25447000       2.30380000       0.31650000      -0.35762600       0.45593400       0.35916900
Fe       0.58974000       2.16621000       2.00793000      -0.65445000      -1.20255200      -0.65738600
B        0.96850000       1.28585000       4.98731000      -0.69277700       1.43243400      -0.08894100
B        0.48288000       0.89734000       3.41422000       0.26314800       0.47059400       1.54646800
B        4.21100000       3.85305000       5.76341000       0.29682800      -0.42520000       0.15197900
B        5.98837000       2.97367000       4.41061000       0.87305000      -1.00261800       0.22837300
Si       1.90209000       3.63106000       5.21878000      -1.08164600      -0.55702600      -0.17021500
10
Lattice="12.0 0.0 0.0 0.0 12.0 0.0 0.0 0.0 12.0" Properties=species:S:1:pos:R:3:forces:R:3 config_type=Fe5B4Si1 energy=53.26058385 pbc="T T T"
Fe       9.75506000       4.65885000       6.84675000      -1.51773000      -0.47018300       5.44391000
Fe       9.45254000       3.01081000      10.03033000      -2.54715400       3.54437400      -1.59618300
Fe       5.88096000       9.02657000       8.06597000      -0.00566300       0.12575500      -0.17235600
Fe       7.09137000       4.73667000      11.56677000       0.34834200      -0.30141900      -2.90160200
Fe       8.82346000       6.80366000      10.05752000      -0.22204300      -4.47493000      -2.02517200
B        9.30454000       4.66426000       8.81379000      -3.30789000       0.18256500       3.25112400
B        9.70232000      11.56902000       0.32603000       0.63181900      -0.18956000      -1.35338300
B        7.43143000       4.66301000       9.40776000       5.03531000       0.30549800       1.55449100
B        7.56910000       7.88646000       2.27231000       0.98565900       0.93181000      -0.99350300
Si       2.28965000       9.81820000      10.34826000       0.59935100       0.34609000      -1.20732600
10
Lattice="12.0 0.0 0.0 0.0 12.0 0.0 0.0 0.0 12.0" Properties=species:S:1:pos:R:3:forces:R:3 config_type=Fe5B4Si1 energy=-27.32997215 pbc="T T T"