54
Lattice="8.579999685 0.0 0.0 0.0 8.579999685 0.0 0.0 0.0 8.5799996" Properties=species:S:1:pos:R:3:REF_forces:R:3:MACE_forces:R:3 config_type=Fe34B10Si10 REF_energy=-352.89092233 MACE_energy=-353.2493918076383 pbc="T T T"
Fe       1.46495000       0.71583000       1.12880000       3.73230100      -3.41607500      -3.76209700       3.70787738      -3.47734073      -3.57620860
Fe       0.56244000       2.07917000       1.96452000      -3.31290700       4.06628900       2.54508600      -3.27251799       3.97640283       2.31519342
Fe       0.86636000       2.12990000       5.00906000     -10.85567700      -2.87102900      12.20968700     -10.86668214      -2.94541429      12.16846215
Fe       0.24697000       2.61233000       7.83061000      -0.37811800      -2.03816900      -0.08744800      -0.41933167      -1.95051461       0.06750103
Fe       0.35437000       4.66395000       8.16447000      -1.30300600       1.62250000       0.84662400      -1.32965249       1.68129231       0.79562264
Fe       0.83543000       8.00840000       3.01492000       5.54921000      -2.55787300       0.52513800       5.69056769      -2.53314641       0.43395260
Fe       2.03952000       7.84431000       6.63062000      -4.28706100       1.82495200      -1.68802900      -4.10446848       1.98380252      -1.61441961
Fe       3.34318000       0.11090000       2.96052000      -0.46571400      -0.35056300       0.37864800      -0.50418951      -0.22160652       0.48455270
Fe       3.26317000       2.11539000       1.48699000      -3.47884800      -0.03222100       0.61542300      -3.40307119      -0.30861352       0.15600935
Fe       4.14313000       2.75755000       3.31065000      -0.71378000      -2.73118300       1.93004800      -0.64041621      -2.46698549       1.91831482
Fe       2.55051000       2.67374000       7.19710000      -2.55215900      -0.93589000       1.77261600      -2.30917910      -1.12438403       1.75206435
Fe       3.61327000       2.86500000       5.46497000       1.55763200       0.20514300      -0.56676300       1.49156625       0.29040126      -0.34234449
Fe       2.62400000       4.72550000       1.39174000      -1.08585200      -1.19598700       0.59645400      -1.36931882      -0.98302834       0.70259883
Fe       2.20317000       5.21693000       3.87451000      -3.92870900      -4.38103900      -4.92199500      -3.87883311      -4.35588547      -4.98691473
Fe       3.93082000       4.37819000       8.08226000       1.07616800       0.44807800      -0.99700400       0.98420380       0.29220481      -0.96377901
Fe       2.44961000       7.01753000       1.08943000       0.32119000      -1.55635000       3.27006500       0.41973077      -1.59507529       3.26094993
Fe       3.02500000       6.15780000       5.08193000      -1.08486800       1.64126100       3.95415400      -0.55956735       1.64928482       4.05362629
Fe       5.77712000       0.44616000       0.16142000      -2.43333700       0.07175000       4.13474700      -2.48834497       0.42712423       4.24867048
Fe       5.66964000       0.14892000       2.95259000      -3.67617900       1.90971100       0.12919700      -3.68659188       1.66531067       0.32916003
Fe       5.39484000       2.66317000       1.55162000       4.08183700      -3.39937100       3.88213200       4.06163761      -3.66935382       4.06952523
Fe       5.91309000       3.40423000       8.31953000       8.90196200       5.48305700      -2.72562400       8.68144711       5.41135689      -2.71154059
Fe       4.96126000       4.63305000       3.41410000      -3.60269200      -2.00302700       2.25051900      -3.72044354      -2.18133145       2.42019462
Fe       5.11347000       6.81217000       1.78872000      -0.87770500       0.06714300      -1.61156800      -0.72990895       0.05990624      -1.58009971
Fe       5.00950000       6.45991000       8.24507000      -2.30619500      -0.19808200      -1.52355700      -2.33947764       0.00434513      -1.72488202
Fe       4.64263000       7.71190000       5.75084000       2.50156800       4.23919200      -1.55456800       2.58436764       4.32162544      -1.61456913
Fe       7.32285000       0.33022000       5.03535000      -0.99210900      -0.59745100       4.73628300      -1.00998055      -0.36463142       4.77306113
Fe       6.75330000       1.32958000       7.05071000       0.53851300       2.01290400       0.36400700       0.54593130       1.84113951       0.31028491
Fe       6.82686000       2.53028000       3.66692000      -0.08907100      -0.12987400      -0.26318300      -0.03437745      -0.20340047      -0.24728452
Fe       6.83617000       5.56618000       0.59386000       1.74434500       1.47371700      -3.32847200       1.83891760       1.61846025      -3.44710307
Fe       8.27091000       4.29855000       2.87718000       3.23308900       0.33980500       1.37352500       3.19234130       0.20870408       1.30177191
Fe       6.58774000       4.90718000       4.97515000      -1.87594500       0.58060600      -0.05143700      -2.11808175       0.64667467      -0.35724688
Fe       6.86773000       6.79187000       3.27473000       1.52763600      -2.76254700       0.67579100       1.40754408      -2.44943560       0.37909214
Fe       8.09083000       8.29691000       0.84396000      -4.18921500      -1.95965200       9.56442300      -4.13788868      -2.29863456       9.65328292
Fe       6.62133000       7.67903000       7.47205000      -3.65417600       1.51975600      -3.32990400      -3.90687191       1.23195975      -3.52659208
B        3.45077000       6.81738000       6.75435000       2.04131500      -2.79808300       3.80923700       1.92058084      -2.75224617       3.97897530
B        4.67436000       1.10514000       4.73414000       0.75036200       0.95391600      -0.52852700       0.83491916       0.89493076      -0.45884218
B        6.18153000       2.20088000       5.47737000      -4.49435700      -3.20609500      -2.27763700      -4.71821041      -3.13692118      -2.49399638
B        5.08133000       4.10197000       6.35983000       0.35152900       0.25548900      -0.65354500       0.55871394       0.32411554      -0.58702111
B        4.48663000       4.29393000       1.40792000      -0.27448100       1.04603100       0.21283300      -0.26648551       1.22252325       0.15166066
B        4.96286000       5.88068000       6.14703000       0.60492000      -1.85032800       0.29314600       0.59251458      -1.93260109       0.14368915
B        8.17242000       5.65216000       5.55863000       1.00443800       0.65677900      -0.69824300       1.04461955       0.69229325      -0.30576556
B        7.98743000       6.92663000       6.60530000       5.86774900       2.58695800      -4.05103700       5.83772267       2.42048678      -3.68221602
B        7.10769000       5.72812000       6.91109000      -2.33709700      -3.34606800       1.34633400      -2.26359824      -3.45998450       1.33938484
B        7.81665000       6.81498000       8.33858000       5.04350100      -2.41043400       0.97359300       5.14708726      -2.43279762       0.70021083
Si       0.06983000       0.14925000       7.74742000       4.12649000       2.60901100      -8.87608100       3.96789436       2.63584299      -8.85787373
Si       1.93337000       2.41223000       3.74634000      10.14534600       2.98113100     -12.18526000      10.19874052       3.08280548     -11.97280773
Si       0.75978000       6.02813000       1.69309000      -4.13401100      -0.74920300       1.02787300      -4.10055059      -0.88236234       0.99959954
Si       2.22023000       5.10313000       7.16329000      -1.58663400       1.19675500      -1.89967800      -1.77040850       1.14048832      -1.92141732
Si       3.27754000       8.17117000       8.35443000       4.04667900       4.58101600      -2.24829100       3.89038482       4.53133830      -2.43759219
Si       4.48145000       2.18337000       8.34202000      -5.72220500      -5.96162700      -4.99603400      -5.48139487      -5.80850068      -5.16329114
Si       6.36439000       4.54151000       2.12641000       2.28764700      -2.33178900       1.39384200       2.57967892      -2.22226230       1.28534164
Si       4.52267000       6.51460000       3.75633000       0.42177200       5.22743800       1.25328700       0.14129045       5.33387343       1.35673764
Si       7.68278000       0.22257000       3.11016000      -0.17295300       4.89916800      -3.86478000      -0.27701052       4.78650245      -3.96107393
Si       7.35363000       3.38410000       6.13231000       4.40786200       1.27045000       2.62604800       4.38657441       1.38126195       2.98539065
54
Lattice="8.579999685 0.0 0.0 0.0 8.579999685 0.0 0.0 0.0 8.5799996" Properties=species:S:1:pos:R:3:REF_forces:R:3:MACE_forces:R:3 config_type=Fe34B10Si10 REF_energy=-354.71875992 MACE_energy=-355.28563676633235 pbc="T T T"
Fe       0.43313000       1.19321000       2.96848000       1.47291300       2.99028000       0.61180900       1.64236181       2.99051487       0.35308844
Fe       0.91365000       1.12516000       8.09995000       2.76260400      -2.00335600       1.20968300       2.52650502      -2.06310128       1.10023930
Fe       1.17142000       2.67870000       5.23446000      -1.90323000       6.04651700       0.58026800      -1.70225866       6.26195116       0.62938850
Fe       0.60772000       3.85484000       0.87278000       2.66909500       4.89444800       4.53699300       2.65822588       5.13775375       4.21338422
Fe       1.41565000       3.44858000       3.01161000      -0.29549500       2.03729500      -0.74017400      -0.22538779       1.92181297      -0.69769426
Fe       0.04226000       2.91249000       8.09734000      -3.39897200      -2.84207300      -2.69442200      -3.01842284      -2.78855223      -2.44914518
Fe       1.33282000       7.09057000       5.22634000      -0.45239700      -1.35392500       0.92503500      -0.26214109      -1.50817000       0.85224710
Fe       2.06045000       7.92051000       0.98063000      -3.11321000      -0.30108300      -2.49280600      -3.27149535      -0.51850544      -2.36593929
Fe       2.03627000       8.24295000       3.50701000      -1.42216600       4.38122900       0.88517600      -1.57627233       4.20192363       0.55520978
Fe       0.01253000       8.02686000       7.00667000       2.58679700       0.98610200     -11.80201700       2.51191110       0.81605891     -11.87936982
Fe       3.00353000       0.57289000       6.13981000      -1.03922300       0.18357300       0.93137300      -0.73473579       0.00217702       1.09213047
Fe       3.69949000       2.65196000       7.51811000       2.76433000      -4.34399200      -3.80269000       2.54486431      -4.16931062      -3.63523089
Fe       2.94478000       6.44154000       3.03987000       7.21319500      -3.66655800      -1.17614100       7.13970191      -3.46387822      -0.97735029
Fe       2.94309000       5.75189000       6.64956000      -6.24071800      -0.74678300       3.86021800      -6.55245859      -0.70936629       3.90799029
Fe       3.71160000       8.39321000       1.86324000       2.24845700      -0.43546600       0.28887200       2.43397542      -0.24460377       0.54521989
Fe       4.07810000       8.43915000       4.32840000       2.88035800       1.28304800      -0.49181300       2.94919493       1.44292404      -0.78902240
Fe       5.57499000       0.73262000       6.31633000      -3.12774100      -1.68249800      -0.98058200      -2.91368053      -1.74034557      -1.03255804
Fe       4.70712000       1.94493000       1.65492000      -2.04675700       4.97917500      -3.67899600      -2.08033704       4.84272959      -3.42670796
Fe       4.73401000       4.18392000       1.24748000       0.71501700       1.80608500      -0.06999200       0.68296343       1.98149679      -0.13520447
Fe       4.56687000       4.22266000       4.39618000       0.73801700       3.32591500      -2.10569900       0.58915806       3.46329869      -2.28737544
Fe       4.51224000       4.61167000       7.05684000       2.53211900      -0.41024200       0.53825400       3.02059214      -0.67744165       0.62511781
Fe       6.32808000       6.81945000       4.24288000      -3.20445400      -0.33519400      -1.28892300      -2.85679989      -0.26245888      -1.08337547
Fe       6.22240000       7.17309000       0.16230000      -3.30904600      -2.75215800       1.90373500      -3.49212126      -2.99915727       1.98826267
Fe       4.54224000       7.44382000       7.03838000       0.17895600      -5.02037800      -8.74618400       0.14763010      -5.32564493      -8.81486501
Fe       4.73272000       8.55832000       8.35561000      -0.10588400       8.96287400       6.54083400      -0.27993173       9.36991333       6.28836316
Fe       7.67285000       2.82429000       2.17742000      -2.12886900      -0.76272600      -2.06587500      -2.15287052      -0.72514027      -1.90611971
Fe       6.74071000       1.77406000       4.33655000       0.47479500       0.50025500      -0.42349800       0.10561745       0.49665404      -0.52820664
Fe       7.16362000       1.61896000       6.68131000       5.11373900       1.83737400       0.70818800       4.88868118       1.65763442       0.64999840
Fe       6.73653000       4.13840000       7.84564000       0.19062300       0.32905600       3.59274800       0.34076015       0.47288724       3.66468065
Fe       6.61248000       5.35948000       2.44590000       0.96755600      -0.77403900      -0.47053600       0.88982219      -0.75418282      -0.42780608
Fe       8.39074000       4.95678000       4.82580000       0.50677700       3.21370700       1.22596300       0.56937138       3.15345259       1.07524899
Fe       6.62275000       6.29700000       6.29237000       0.91106900      -0.58785400       1.74696000       0.85427815      -0.47838914       1.54381640
Fe       8.00875000       8.14674000       2.12563000      -1.25903800      -1.94608200      -3.37077000      -0.88302833      -1.96507509      -3.57853057
Fe       7.96861000       8.10559000       4.08816000       1.24434400       0.03207600       4.40361200       0.66069122      -0.01062703       4.65039232
B        3.14587000       1.61638000       2.59818000      -3.96044800      -1.57388800      -2.24367700      -4.11389840      -1.53357156      -2.20370096
B        4.07212000       1.93087000       3.78701000       0.55534200       0.12762300      -3.25123200       0.40344511       0.00937094      -3.28918398
B        2.24412000       1.90783000       4.05913000      -1.80380000      -9.70850100      -5.48536600      -1.89607631      -9.93573997      -5.57706370
B        2.90130000       3.06657000       4.45062000       2.48509300       7.60479000      -1.50334300       2.80619062       7.21001587      -1.41674623
B        2.82587000       3.80138000       5.80651000       0.21675600       2.27927400       3.92227300       0.23183899       2.13050214       3.93083267
B        2.60929000       5.04297000       1.66311000       0.12617300      -0.77075900      -0.46531300      -0.01597319      -0.96371929      -0.48854973
B        2.47198000       4.95014000       4.32601000      -0.76752800      -1.31946700       0.35153300      -0.89390887      -1.17728700       0.39789434
B        2.73354000       7.81887000       7.66829000      -1.47869400      -0.15377200       0.00458000      -1.44381562      -0.13756260       0.09932343
B        5.68071000       2.28134000       7.79544000      -0.95924500       0.41857400       1.11780500      -1.04529016       0.38129426       1.10155711
B        7.77536000       3.70665000       3.76574000      -0.44877700      -1.48394500      -0.38974400      -0.48338602      -1.40433022      -0.19284798
Si       0.79518000       0.92195000       5.77957000      -1.66645900      -4.94136200      -1.10925300      -1.64606214      -5.01720139      -0.93814068
Si       0.88055000       4.20706000       6.73551000       1.15626000       3.58432200      -0.32349000       1.14687633       3.67262101      -0.30344254
Si       1.15025000       6.44729000       2.43826000      -7.77651300      -1.83655100      -1.54918700      -7.82697681      -1.70798170      -1.74703675
Si       2.82820000       3.29548000       0.50208000      -4.05499500       1.58525200       5.32597100      -4.10656182       1.40919211       5.23629513
Si       4.14031000       6.38272000       0.30005000      -2.16949800      -2.44928300       2.57761000      -2.30896376      -2.34110004       2.44651946
Si       3.68345000       6.43010000       5.01209000       3.98893100       0.98565200      -2.13453700       3.91931477       1.20637639      -2.05763290
Si       5.73751000       0.59059000       2.53265000       5.08228400      -4.90021500       2.23852200       5.15827111      -4.94620360       2.49548168
Si       4.51163000       2.47994000       5.36819000       2.60737700      -2.86786400       7.12589500       2.76604305      -2.58199986       7.27322165
Si       6.43436000       3.75222000       5.86206000       1.38008400       0.66155200      -3.64612400       1.49618207       0.65310690      -3.76791156
Si       8.06432000       7.52318000       8.55473000       2.36409700      -3.06603600      11.34847700       2.69838696      -2.73501491      11.28085469
18
Lattice="6.5 0.0 0.0 0.0 6.5 0.0 0.0 0.0 6.5" Properties=species:S:1:pos:R:3:REF_forces:R:3:MACE_forces:R:3 config_type=Fe12B3Si3 REF_energy=-113.87843945 MACE_energy=-112.28321757388613 pbc="T T T"
Fe       5.40234000       5.43492000       1.53729000      -1.39532100       2.04028400       0.71142300      -1.21700685       2.04173612       0.79805379
Fe       2.09750000       2.10361000       0.54730000       2.35673700      -0.33103000       1.27254800       2.62890079      -0.27389550       1.48868276
Fe       2.84360000       1.73250000       3.81271000       2.28004000      -1.18251600      -0.27344700       2.23678941      -1.05643671      -0.34893299
Fe       0.77541000       4.93717000       1.04317000       1.56096300      -3.83372900       1.76362000       1.53621424      -3.62941500       1.57567739
Fe       0.07665000       3.70431000       3.74351000      -0.75952900      -0.39175400      -2.23189700      -0.95691600      -0.49581134      -2.33489879
Fe       4.77171000       3.58949000       4.78220000      -1.99219600      -4.62409700       0.48420500      -1.76868033      -4.54117553       0.42355421
Fe       4.12430000       1.49867000       1.46476000       0.29771700      -2.38794700       0.28396300       0.33043327      -2.69330940       0.16821188
Fe       0.95387000       5.17746000       5.28728000      -0.57085000      -0.50160400      -1.80733600      -0.84305709      -0.66466059      -1.35655830
Fe       1.93602000       3.09888000       2.36598000      -0.08855100       0.43128300      -0.27209000      -0.23062765       0.55780570      -0.40649425
Fe       5.69037000       1.28357000       4.20026000      -0.40866000      -0.49067900       0.18976600      -0.74723096      -0.36382813       0.25461341
Fe       1.94321000       2.86141000       5.39871000      -0.55906500       0.73218900      -1.80086600      -0.62458107       1.01421567      -2.19025293
Fe       4.33122000       5.38124000       5.25469000      -0.73272900       4.56545400       1.52017900      -0.64142780       4.45417865       1.57416696
B        0.37598000       1.64060000       1.21420000      -3.21263000       2.85095800       0.76078000      -3.11933553       2.78365016       0.96759422
B        1.88110000       4.04794000       3.96741000       2.48956600       2.45119300      -0.32261600       2.55864068       2.33504763      -0.33058027
B        3.63878000       0.94242000       5.41981000      -0.01444500       0.67937600       0.95779200       0.07416523       0.77411549       1.07274622
Si       1.19380000       0.26963000       0.19686000       0.54051800       0.24528300      -1.93219100       0.63219475       0.01440034      -1.89035585
Si       4.57825000       3.47658000       1.16117000       0.15934200       1.26766700      -0.81102600       0.22621871       1.38446142      -0.75252723
Si       1.09558000       0.76720000       2.75124000       0.04909300      -1.52033200       1.50719200      -0.07469380      -1.64107899       1.28729976
54
Lattice="8.579999685 0.0 0.0 0.0 8.579999685 0.0 0.0 0.0 8.5799996" Properties=species:S:1:pos:R:3:REF_forces:R:3:MACE_forces:R:3 config_type=Fe34B10Si10 REF_energy=-356.0869274 MACE_energy=-356.98485360003883 pbc="T T T"
Fe       0.92877000       1.08311000       2.12831000      -0.53214900      -1.15432400       0.53007800      -0.65298678      -1.17633884       0.44648863
Fe       1.12794000       0.45096000       7.37327000      -2.86345100       2.18226700       1.45805300      -2.74437879       2.01987822       1.43182579
Fe       0.91289000       3.61082000       1.96264000      -1.66570100       0.50807500      -4.76654600      -1.59416588       0.21730068      -4.66096813
Fe       0.97242000       3.25012000       3.83975000      -0.85629000      -1.23507100      -0.91491200      -1.16482063      -1.10196184      -0.46074494
Fe       1.43574000       3.84332000       5.84621000      -1.94378300      -0.72872400       4.94145300      -2.07539598      -0.56971033       4.80741287
Fe       0.45897000       5.99881000       1.32384000       1.86679900       1.45939200      -0.33976700       1.71048064       1.48183358      -0.14852328
Fe       0.05714000       6.25044000       6.01250000       0.66851500      -0.88142700       1.67028200       0.61704588      -0.76051565       1.69364579
Fe       1.87526000       7.05991000       7.27744000      -5.90957000       6.81146600       5.95768600      -5.63022233       6.97852903       5.78038510
Fe       4.21220000       0.80536000       3.81626000       0.44958900      -1.97725700       0.54591300       0.54219022      -1.84436935       0.45127684
Fe       2.64196000       0.75311000       5.88605000       0.80305000      -0.92688600      -1.50973400       0.51148072      -1.06757765      -1.47824366
Fe       2.51735000       4.27963000       7.86001000      -0.17185400       2.88247300       0.00075600      -0.18103984       3.01583823       0.05240224
Fe       2.46175000       4.76211000       4.38544000       2.27245000       6.36429500      -0.60000700       2.33948205       6.38062596      -0.56779242
Fe       3.99132000       4.46692000       6.09268000      -0.21521200      -1.96607600      -0.25853400      -0.27807615      -2.22641747      -0.18497478
Fe       4.03283000       6.20484000       2.50717000       0.32509400      -1.83048700       1.07686200       0.41942583      -1.76806885       1.07061776
Fe       2.62183000       8.12097000       1.25125000      -5.45108600      -1.04608100      -0.88869000      -5.55394816      -1.10750163      -0.69671166
Fe       2.34208000       7.49949000       3.33705000      -1.45221900       0.10179900       1.96325000      -1.30576658       0.11196085       1.63861937
Fe       4.67554000       0.98699000       8.35162000       1.97529500       0.95938300       0.07305200       1.73519617       0.88352659       0.29280606
Fe       4.68615000       2.28426000       1.60336000       6.03713100       4.39249100       1.56082500       6.20298478       4.34971340       1.11840582
Fe       4.95897000       4.28949000       0.91503000       1.24258400       3.77490300      -1.07876200       0.80133759       3.59860487      -1.19448727
Fe       5.62605000       3.84953000       3.25301000      -4.56775200       3.43217100       2.09526400      -4.69014650       3.46652340       1.90895266
Fe       5.63153000       5.70233000       4.67966000       0.04558900       0.36352900      -0.74034800       0.08879466      -0.03060570      -0.57461556
Fe       5.00954000       6.14620000       6.89198000       4.51113600      -2.60361300       1.43664400       4.53133304      -2.50070400       1.34593513
Fe       5.34723000       7.32984000       0.56425000       3.41130600      -7.55812200      -7.44238600       3.31957813      -7.12910682      -7.13479002
Fe       4.57141000       8.20633000       1.67615000      -2.51651100       6.57056000       9.11650700      -2.42900904       6.12916627       8.84414321
Fe       5.67084000       7.83697000       6.02451000      -0.02983000       3.57151200       0.33120700      -0.06451474       3.69711637       0.43733715
Fe       7.65837000       1.05332000       0.64336000       1.95813700       2.93603900      -3.62028800       1.81726103       2.80899692      -3.43503776
Fe       7.23579000       1.49494000       3.62009000       0.88838800      -1.50203300       3.00240400       1.04744803      -1.50035110       3.00744643
Fe       6.96409000       1.59543000       6.70415000       0.40175100      -2.57633900      -0.54943900       0.44153040      -2.45306148      -0.50858277
Fe       6.97946000       3.05325000       2.27831000       3.01329100      -2.85779700      -7.80747400       2.65058228      -2.92119211      -7.38308874
Fe       7.05854000       3.62734000       7.13255000       0.94483300       2.42104600       2.56329500       1.00232707       2.35868097       2.36493937
Fe       7.47490000       4.49325000       0.92243000      -3.13561000       0.06366500       0.11142200      -2.81567195       0.40491598      -0.17757422
Fe       7.76499000       5.40883000       4.05655000       3.42051700      -2.49950500       1.10150300       3.59420123      -2.66942541       1.14752223
Fe       6.91686000       6.16423000       2.38917000      -4.34160700       0.52717700      -3.24358900      -4.36648508       0.82999051      -3.26202331
Fe       7.31773000       7.39473000       4.73130000      -1.41907300       3.06948200       1.38572900      -1.41823887       3.00775610       1.30630921
B        1.63947000       5.44017000       2.85377000      -1.37965300       1.67099600      -0.34434500      -1.45292057       1.72161880      -0.56665787
B        3.47444000       1.29905000       1.69513000      -6.04542900      -7.46227000      -1.52467000      -6.09481429      -6.95942405      -1.26590093
B        2.31673000       1.42955000       3.77944000      -1.85652800      -2.14982900       3.21956500      -1.79744189      -1.95869595       3.33716159
B        3.17088000       0.01260000       8.16689000      -2.14308300      -0.12737100      -3.63430700      -2.09155392       0.12417438      -3.48801400
B        2.48887000       2.23189000       2.44876000      -1.30373000       3.96631200      -0.94871100      -0.89293262       3.73586818      -1.23587711
B        3.55016000       3.21990000       0.17024000       2.13469500      -3.52588700       0.23974700       2.12314859      -3.54920904       0.38626883
B        3.12966000       3.07291000       4.24572000      -6.99085300       0.34377600      -0.16579100      -6.89635946       0.11543224      -0.18787461
B        2.38358000       5.95301000       6.34325000       2.25901800      -8.76611800      -6.31465800       2.11719539      -9.02283621      -6.38350954
B        4.46260000       2.62992000       4.23823000       7.08507900      -1.75449200       0.40993300       6.99713652      -1.84116407       0.37621404
B        7.51183000       3.59374000       3.85724000       1.49621300      -1.20378300       3.39561400       1.49913932      -1.02888525       3.21638364
Si       0.50050000       1.66927000       5.10425000      -1.02554400      -2.67263500       2.61432900      -0.77501663      -2.97253219       2.58633027
Si       0.41923000       4.50138000       8.15701000       0.82744200      -0.47721100      -2.57541600       1.07792018      -0.42645400      -2.75036557
Si       2.90131000       4.25049000       1.93860000       2.71957100       0.04497600      -0.88170100       2.70767869      -0.00257846      -1.03281236
Si       3.74353000       6.85388000       5.19884000      -1.20766000       1.80214700      -2.20114300      -1.07614898       1.91773400      -2.08984164
Si       3.54209000       6.47938000       8.21357000      -0.45014500      -1.75854100       4.24377300      -0.58982988      -2.02505849       4.39433042
Si       4.55252000       1.74669000       6.40118000       0.28733400       0.20348600      -1.69136000       0.26793066       0.20055845      -1.62681779
Si       5.87020000       3.30923000       5.41310000       1.93974000       0.55942400      -1.14043100       1.68031566       0.82168320      -1.16937383
Si       6.68392000       0.09389000       2.07850000      -2.78148600      -1.30329400       2.70552900      -2.55745662      -1.24424996       2.82887021
Si       7.30980000       7.36953000       0.08595000       4.18267400      -0.22507900      -1.67891000       4.34254456      -0.40594663      -1.74249777
Si       8.41387000       7.50606000       2.97540000       5.08859000       1.78741200      -0.88875800       5.00365280       1.88591534      -0.86432910
54
Lattice="8.579999685 0.0 0.0 0.0 8.579999685 0.0 0.0 0.0 8.5799996" Properties=species:S:1:pos:R:3:REF_forces:R:3:MACE_forces:R:3 config_type=Fe34B10Si10 REF_energy=-359.84864784 MACE_energy=-360.37396709684197 pbc="T T T"
Fe       0.39531000       2.37288000       0.87042000       3.27925500       2.43832800      -1.60261100       3.14660775       2.65615921      -1.70406992
Fe       0.75383000       1.65209000       3.11094000       1.30783500      -0.34615400      -0.09267000       1.31394591      -0.76094717       0.05350626
Fe       1.33201000       3.79282000       7.26231000      -2.40668100      -1.18131200       0.32245500      -2.53334955      -1.18201477       0.21145027
Fe       0.64436000       4.41396000       2.97573000       2.42004200      -2.26182600       0.38963900       2.47743212      -2.08509458       0.23150792
Fe       0.14751000       6.42079000       3.51005000      -3.07002100       1.32407200      -2.30638400      -3.16798524       1.35195569      -2.50009359