54
Lattice="8.579999685 0.0 0.0 0.0 8.579999685 0.0 0.0 0.0 8.5799996" Properties=species:S:1:pos:R:3:REF_forces:R:3:MACE_forces:R:3 config_type=Fe34B10Si10 REF_energy=-352.89092233 MACE_energy=-353.20728074533304 pbc="T T T"
Fe       1.46495000       0.71583000       1.12880000       3.73230100      -3.41607500      -3.76209700       3.69108525      -3.44530443      -3.55000314
Fe       0.56244000       2.07917000       1.96452000      -3.31290700       4.06628900       2.54508600      -3.24981883       3.94264952       2.30288438
Fe       0.86636000       2.12990000       5.00906000     -10.85567700      -2.87102900      12.20968700     -10.95101517      -2.97414358      12.25715224
Fe       0.24697000       2.61233000       7.83061000      -0.37811800      -2.03816900      -0.08744800      -0.41403481      -1.90933388       0.06264550
Fe       0.35437000       4.66395000       8.16447000      -1.30300600       1.62250000       0.84662400      -1.35347276       1.65089249       0.80108222
Fe       0.83543000       8.00840000       3.01492000       5.54921000      -2.55787300       0.52513800       5.71894029      -2.54877787       0.41757086
Fe       2.03952000       7.84431000       6.63062000      -4.28706100       1.82495200      -1.68802900      -4.10703630       1.98474701      -1.64450136
Fe       3.34318000       0.11090000       2.96052000      -0.46571400      -0.35056300       0.37864800      -0.49592425      -0.22567974       0.48146570
Fe       3.26317000       2.11539000       1.48699000      -3.47884800      -0.03222100       0.61542300      -3.38731731      -0.29044498       0.19401188
Fe       4.14313000       2.75755000       3.31065000      -0.71378000      -2.73118300       1.93004800      -0.62964875      -2.45995787       1.89566195
Fe       2.55051000       2.67374000       7.19710000      -2.55215900      -0.93589000       1.77261600      -2.30281707      -1.11664254       1.72148403
Fe       3.61327000       2.86500000       5.46497000       1.55763200       0.20514300      -0.56676300       1.48301033       0.28876987      -0.31905209
Fe       2.62400000       4.72550000       1.39174000      -1.08585200      -1.19598700       0.59645400      -1.36506475      -0.97026285       0.69869460
Fe       2.20317000       5.21693000       3.87451000      -3.92870900      -4.38103900      -4.92199500      -3.88076326      -4.35433029      -4.97684261
Fe       3.93082000       4.37819000       8.08226000       1.07616800       0.44807800      -0.99700400       1.00145484       0.28634442      -0.94865425
Fe       2.44961000       7.01753000       1.08943000       0.32119000      -1.55635000       3.27006500       0.41809351      -1.60748373       3.28609513
Fe       3.02500000       6.15780000       5.08193000      -1.08486800       1.64126100       3.95415400      -0.57322359       1.65980189       4.05750937
Fe       5.77712000       0.44616000       0.16142000      -2.43333700       0.07175000       4.13474700      -2.47660189       0.42209332       4.22558375
Fe       5.66964000       0.14892000       2.95259000      -3.67617900       1.90971100       0.12919700      -3.71322136       1.65045411       0.32028010
Fe       5.39484000       2.66317000       1.55162000       4.08183700      -3.39937100       3.88213200       4.05481909      -3.67618199       4.06054934
Fe       5.91309000       3.40423000       8.31953000       8.90196200       5.48305700      -2.72562400       8.70472956       5.43245640      -2.66487112
Fe       4.96126000       4.63305000       3.41410000      -3.60269200      -2.00302700       2.25051900      -3.75191917      -2.22901061       2.42729749
Fe       5.11347000       6.81217000       1.78872000      -0.87770500       0.06714300      -1.61156800      -0.70928228       0.06685337      -1.60172280
Fe       5.00950000       6.45991000       8.24507000      -2.30619500      -0.19808200      -1.52355700      -2.31996661       0.01884478      -1.69537527
Fe       4.64263000       7.71190000       5.75084000       2.50156800       4.23919200      -1.55456800       2.57814515       4.32248981      -1.62152119
Fe       7.32285000       0.33022000       5.03535000      -0.99210900      -0.59745100       4.73628300      -1.02274327      -0.36341178       4.82789557
Fe       6.75330000       1.32958000       7.05071000       0.53851300       2.01290400       0.36400700       0.54745372       1.82372317       0.32731885
Fe       6.82686000       2.53028000       3.66692000      -0.08907100      -0.12987400      -0.26318300      -0.03721863      -0.19362568      -0.25590952
Fe       6.83617000       5.56618000       0.59386000       1.74434500       1.47371700      -3.32847200       1.83989787       1.65673050      -3.49010986
Fe       8.27091000       4.29855000       2.87718000       3.23308900       0.33980500       1.37352500       3.21020057       0.19942117       1.30708754
Fe       6.58774000       4.90718000       4.97515000      -1.87594500       0.58060600      -0.05143700      -2.13283117       0.65206227      -0.35002896
Fe       6.86773000       6.79187000       3.27473000       1.52763600      -2.76254700       0.67579100       1.39465367      -2.45495484       0.36332343
Fe       8.09083000       8.29691000       0.84396000      -4.18921500      -1.95965200       9.56442300      -4.15886914      -2.32285642       9.69918290
Fe       6.62133000       7.67903000       7.47205000      -3.65417600       1.51975600      -3.32990400      -3.93069219       1.23045768      -3.51508759
B        3.45077000       6.81738000       6.75435000       2.04131500      -2.79808300       3.80923700       1.92472386      -2.76555236       3.98529009
B        4.67436000       1.10514000       4.73414000       0.75036200       0.95391600      -0.52852700       0.83248559       0.89445747      -0.46395399
B        6.18153000       2.20088000       5.47737000      -4.49435700      -3.20609500      -2.27763700      -4.73419442      -3.17468913      -2.50936517
B        5.08133000       4.10197000       6.35983000       0.35152900       0.25548900      -0.65354500       0.55475553       0.32426804      -0.58865199
B        4.48663000       4.29393000       1.40792000      -0.27448100       1.04603100       0.21283300      -0.26958538       1.22190796       0.14846630
B        4.96286000       5.88068000       6.14703000       0.60492000      -1.85032800       0.29314600       0.58897448      -1.93675097       0.13108862
B        8.17242000       5.65216000       5.55863000       1.00443800       0.65677900      -0.69824300       1.04027315       0.69673298      -0.31380725
B        7.98743000       6.92663000       6.60530000       5.86774900       2.58695800      -4.05103700       5.85613038       2.43373374      -3.69294675
B        7.10769000       5.72812000       6.91109000      -2.33709700      -3.34606800       1.34633400      -2.26621057      -3.46330531       1.34342722
B        7.81665000       6.81498000       8.33858000       5.04350100      -2.41043400       0.97359300       5.17958722      -2.43423403       0.70842865
Si       0.06983000       0.14925000       7.74742000       4.12649000       2.60901100      -8.87608100       3.97945337       2.64502370      -8.88713858
Si       1.93337000       2.41223000       3.74634000      10.14534600       2.98113100     -12.18526000      10.27649461       3.10530727     -12.06440372
Si       0.75978000       6.02813000       1.69309000      -4.13401100      -0.74920300       1.02787300      -4.12426632      -0.88146971       1.00525669
Si       2.22023000       5.10313000       7.16329000      -1.58663400       1.19675500      -1.89967800      -1.77211801       1.15022717      -1.93806372
Si       3.27754000       8.17117000       8.35443000       4.04667900       4.58101600      -2.24829100       3.90577625       4.54755472      -2.44855044
Si       4.48145000       2.18337000       8.34202000      -5.72220500      -5.96162700      -4.99603400      -5.51584396      -5.83132008      -5.18247904
Si       6.36439000       4.54151000       2.12641000       2.28764700      -2.33178900       1.39384200       2.59094424      -2.24249394       1.28471863
Si       4.52267000       6.51460000       3.75633000       0.42177200       5.22743800       1.25328700       0.14039287       5.36821446       1.37305747
Si       7.68278000       0.22257000       3.11016000      -0.17295300       4.89916800      -3.86478000      -0.27875090       4.81157603      -3.99134162
Si       7.35363000       3.38410000       6.13231000       4.40786200       1.27045000       2.62604800       4.41197674       1.38442331       2.99987153
54
Lattice="8.579999685 0.0 0.0 0.0 8.579999685 0.0 0.0 0.0 8.5799996" Properties=species:S:1:pos:R:3:REF_forces:R:3:MACE_forces:R:3 config_type=Fe34B10Si10 REF_energy=-354.71875992 MACE_energy=-355.3256501981197 pbc="T T T"
Fe       0.43313000       1.19321000       2.96848000       1.47291300       2.99028000       0.61180900       1.62707937       2.97178638       0.35474055
Fe       0.91365000       1.12516000       8.09995000       2.76260400      -2.00335600       1.20968300       2.49904756      -2.06345885       1.08627684
Fe       1.17142000       2.67870000       5.23446000      -1.90323000       6.04651700       0.58026800      -1.67353501       6.30085322       0.60922507
Fe       0.60772000       3.85484000       0.87278000       2.66909500       4.89444800       4.53699300       2.65975628       5.14728461       4.23633206
Fe       1.41565000       3.44858000       3.01161000      -0.29549500       2.03729500      -0.74017400      -0.23051650       1.92424638      -0.67318581
Fe       0.04226000       2.91249000       8.09734000      -3.39897200      -2.84207300      -2.69442200      -3.00888533      -2.82442707      -2.42613624
Fe       1.33282000       7.09057000       5.22634000      -0.45239700      -1.35392500       0.92503500      -0.26447910      -1.49328701       0.83457125
Fe       2.06045000       7.92051000       0.98063000      -3.11321000      -0.30108300      -2.49280600      -3.25245389      -0.50687312      -2.33853714
Fe       2.03627000       8.24295000       3.50701000      -1.42216600       4.38122900       0.88517600      -1.56946235       4.21087747       0.57182858
Fe       0.01253000       8.02686000       7.00667000       2.58679700       0.98610200     -11.80201700       2.53941485       0.84719477     -11.95306430
Fe       3.00353000       0.57289000       6.13981000      -1.03922300       0.18357300       0.93137300      -0.72338162      -0.00175973       1.09079734
Fe       3.69949000       2.65196000       7.51811000       2.76433000      -4.34399200      -3.80269000       2.58620838      -4.16741621      -3.66970685
Fe       2.94478000       6.44154000       3.03987000       7.21319500      -3.66655800      -1.17614100       7.16462962      -3.45081942      -0.97517429
Fe       2.94309000       5.75189000       6.64956000      -6.24071800      -0.74678300       3.86021800      -6.53556423      -0.73544199       3.94227372
Fe       3.71160000       8.39321000       1.86324000       2.24845700      -0.43546600       0.28887200       2.39179890      -0.25624498       0.53147543
Fe       4.07810000       8.43915000       4.32840000       2.88035800       1.28304800      -0.49181300       2.92924363       1.45265668      -0.80565000
Fe       5.57499000       0.73262000       6.31633000      -3.12774100      -1.68249800      -0.98058200      -2.91307388      -1.72407414      -1.01279618
Fe       4.70712000       1.94493000       1.65492000      -2.04675700       4.97917500      -3.67899600      -2.11931477       4.88129445      -3.44605779
Fe       4.73401000       4.18392000       1.24748000       0.71501700       1.80608500      -0.06999200       0.69436062       1.97405070      -0.13064825
Fe       4.56687000       4.22266000       4.39618000       0.73801700       3.32591500      -2.10569900       0.56810216       3.45633009      -2.28173069
Fe       4.51224000       4.61167000       7.05684000       2.53211900      -0.41024200       0.53825400       2.97109683      -0.68716919       0.61765741
Fe       6.32808000       6.81945000       4.24288000      -3.20445400      -0.33519400      -1.28892300      -2.81600575      -0.24824883      -1.05978319
Fe       6.22240000       7.17309000       0.16230000      -3.30904600      -2.75215800       1.90373500      -3.53821150      -2.99396264       1.98689684
Fe       4.54224000       7.44382000       7.03838000       0.17895600      -5.02037800      -8.74618400       0.16150958      -5.31407324      -8.83147667
Fe       4.73272000       8.55832000       8.35561000      -0.10588400       8.96287400       6.54083400      -0.25256669       9.37712441       6.29815508
Fe       7.67285000       2.82429000       2.17742000      -2.12886900      -0.76272600      -2.06587500      -2.13294595      -0.73957058      -1.92194023
Fe       6.74071000       1.77406000       4.33655000       0.47479500       0.50025500      -0.42349800       0.11169937       0.49671838      -0.51594700
Fe       7.16362000       1.61896000       6.68131000       5.11373900       1.83737400       0.70818800       4.88036119       1.64767502       0.63545238
Fe       6.73653000       4.13840000       7.84564000       0.19062300       0.32905600       3.59274800       0.35269208       0.45547810       3.67544113
Fe       6.61248000       5.35948000       2.44590000       0.96755600      -0.77403900      -0.47053600       0.88118110      -0.74619529      -0.42471012
Fe       8.39074000       4.95678000       4.82580000       0.50677700       3.21370700       1.22596300       0.57599332       3.16737314       1.08057247
Fe       6.62275000       6.29700000       6.29237000       0.91106900      -0.58785400       1.74696000       0.84537195      -0.47184622       1.52402882
Fe       8.00875000       8.14674000       2.12563000      -1.25903800      -1.94608200      -3.37077000      -0.86267446      -1.94983244      -3.51835167
Fe       7.96861000       8.10559000       4.08816000       1.24434400       0.03207600       4.40361200       0.63692370      -0.03633278       4.60574309
B        3.14587000       1.61638000       2.59818000      -3.96044800      -1.57388800      -2.24367700      -4.11666733      -1.55098685      -2.21351786
B        4.07212000       1.93087000       3.78701000       0.55534200       0.12762300      -3.25123200       0.40341623       0.00357995      -3.32462832
B        2.24412000       1.90783000       4.05913000      -1.80380000      -9.70850100      -5.48536600      -1.92001856      -9.94221241      -5.59515493
B        2.90130000       3.06657000       4.45062000       2.48509300       7.60479000      -1.50334300       2.78581397       7.22554313      -1.43141957
B        2.82587000       3.80138000       5.80651000       0.21675600       2.27927400       3.92227300       0.23851465       2.13043892       3.95066673
B        2.60929000       5.04297000       1.66311000       0.12617300      -0.77075900      -0.46531300      -0.02144307      -0.97488675      -0.48110674
B        2.47198000       4.95014000       4.32601000      -0.76752800      -1.31946700       0.35153300      -0.89719433      -1.17859251       0.37993872
B        2.73354000       7.81887000       7.66829000      -1.47869400      -0.15377200       0.00458000      -1.44615809      -0.14231630       0.09272922
B        5.68071000       2.28134000       7.79544000      -0.95924500       0.41857400       1.11780500      -1.05293611       0.37055199       1.11973923
B        7.77536000       3.70665000       3.76574000      -0.44877700      -1.48394500      -0.38974400      -0.47841880      -1.40840540      -0.18667821
Si       0.79518000       0.92195000       5.77957000      -1.66645900      -4.94136200      -1.10925300      -1.65616029      -5.04432566      -0.94789280
Si       0.88055000       4.20706000       6.73551000       1.15626000       3.58432200      -0.32349000       1.15291029       3.69876010      -0.32296489
Si       1.15025000       6.44729000       2.43826000      -7.77651300      -1.83655100      -1.54918700      -7.85651120      -1.70793219      -1.75774408
Si       2.82820000       3.29548000       0.50208000      -4.05499500       1.58525200       5.32597100      -4.12733609       1.40882401       5.26788730
Si       4.14031000       6.38272000       0.30005000      -2.16949800      -2.44928300       2.57761000      -2.32052197      -2.34662374       2.45484333
Si       3.68345000       6.43010000       5.01209000       3.98893100       0.98565200      -2.13453700       3.93895513       1.21601847      -2.07776916
Si       5.73751000       0.59059000       2.53265000       5.08228400      -4.90021500       2.23852200       5.18194395      -4.97467853       2.51213370
Si       4.51163000       2.47994000       5.36819000       2.60737700      -2.86786400       7.12589500       2.78539434      -2.59375416       7.30226598
Si       6.43436000       3.75222000       5.86206000       1.38008400       0.66155200      -3.64612400       1.51040517       0.67021803      -3.79294814
Si       8.06432000       7.52318000       8.55473000       2.36409700      -3.06603600      11.34847700       2.71261263      -2.75913022      11.35504883
18
Lattice="6.5 0.0 0.0 0.0 6.5 0.0 0.0 0.0 6.5" Properties=species:S:1:pos:R:3:REF_forces:R:3:MACE_forces:R:3 config_type=Fe12B3Si3 REF_energy=-113.87843945 MACE_energy=-112.31973894424266 pbc="T T T"
Fe       5.40234000       5.43492000       1.53729000      -1.39532100       2.04028400       0.71142300      -1.17196517       2.04161299       0.79219432
Fe       2.09750000       2.10361000       0.54730000       2.35673700      -0.33103000       1.27254800       2.64426107      -0.22060564       1.48990205
Fe       2.84360000       1.73250000       3.81271000       2.28004000      -1.18251600      -0.27344700       2.22013682      -1.02384775      -0.34545348
Fe       0.77541000       4.93717000       1.04317000       1.56096300      -3.83372900       1.76362000       1.49225778      -3.63658923       1.57717137
Fe       0.07665000       3.70431000       3.74351000      -0.75952900      -0.39175400      -2.23189700      -0.98254870      -0.49318886      -2.31961030
Fe       4.77171000       3.58949000       4.78220000      -1.99219600      -4.62409700       0.48420500      -1.74584138      -4.50617243       0.41552424
Fe       4.12430000       1.49867000       1.46476000       0.29771700      -2.38794700       0.28396300       0.31616731      -2.71034454       0.16169579
Fe       0.95387000       5.17746000       5.28728000      -0.57085000      -0.50160400      -1.80733600      -0.85252118      -0.69213657      -1.34603036
Fe       1.93602000       3.09888000       2.36598000      -0.08855100       0.43128300      -0.27209000      -0.23638958       0.52620449      -0.42790301
Fe       5.69037000       1.28357000       4.20026000      -0.40866000      -0.49067900       0.18976600      -0.75701127      -0.36629225       0.25686683
Fe       1.94321000       2.86141000       5.39871000      -0.55906500       0.73218900      -1.80086600      -0.60687462       0.96071885      -2.16576995
Fe       4.33122000       5.38124000       5.25469000      -0.73272900       4.56545400       1.52017900      -0.63042334       4.41710300       1.56833894
B        0.37598000       1.64060000       1.21420000      -3.21263000       2.85095800       0.76078000      -3.12224572       2.80503141       0.96397125
B        1.88110000       4.04794000       3.96741000       2.48956600       2.45119300      -0.32261600       2.56908195       2.36414516      -0.33522702
B        3.63878000       0.94242000       5.41981000      -0.01444500       0.67937600       0.95779200       0.07526700       0.78236224       1.08072369
Si       1.19380000       0.26963000       0.19686000       0.54051800       0.24528300      -1.93219100       0.63123821       0.01478238      -1.90840657
Si       4.57825000       3.47658000       1.16117000       0.15934200       1.26766700      -0.81102600       0.22405296       1.39249161      -0.76248388
Si       1.09558000       0.76720000       2.75124000       0.04909300      -1.52033200       1.50719200      -0.06664212      -1.65527485       1.30449610
54
Lattice="8.579999685 0.0 0.0 0.0 8.579999685 0.0 0.0 0.0 8.5799996" Properties=species:S:1:pos:R:3:REF_forces:R:3:MACE_forces:R:3 config_type=Fe34B10Si10 REF_energy=-356.0869274 MACE_energy=-357.04919884668163 pbc="T T T"
Fe       0.92877000       1.08311000       2.12831000      -0.53214900      -1.15432400       0.53007800      -0.64752597      -1.17105561       0.44223436
Fe       1.12794000       0.45096000       7.37327000      -2.86345100       2.18226700       1.45805300      -2.73133991       2.00837273       1.41813888
Fe       0.91289000       3.61082000       1.96264000      -1.66570100       0.50807500      -4.76654600      -1.59450402       0.21172463      -4.64893768
Fe       0.97242000       3.25012000       3.83975000      -0.85629000      -1.23507100      -0.91491200      -1.14483750      -1.08362008      -0.49160397
Fe       1.43574000       3.84332000       5.84621000      -1.94378300      -0.72872400       4.94145300      -2.06481435      -0.56061539       4.79802144
Fe       0.45897000       5.99881000       1.32384000       1.86679900       1.45939200      -0.33976700       1.69059467       1.46836723      -0.14699437
Fe       0.05714000       6.25044000       6.01250000       0.66851500      -0.88142700       1.67028200       0.60833996      -0.74646308       1.67057496
Fe       1.87526000       7.05991000       7.27744000      -5.90957000       6.81146600       5.95768600      -5.67162557       7.02815677       5.81335031
Fe       4.21220000       0.80536000       3.81626000       0.44958900      -1.97725700       0.54591300       0.54239224      -1.84974537       0.45304378
Fe       2.64196000       0.75311000       5.88605000       0.80305000      -0.92688600      -1.50973400       0.49154370      -1.08475603      -1.47205174
Fe       2.51735000       4.27963000       7.86001000      -0.17185400       2.88247300       0.00075600      -0.17640359       3.04565142       0.04294925
Fe       2.46175000       4.76211000       4.38544000       2.27245000       6.36429500      -0.60000700       2.33489153       6.38566932      -0.54106500
Fe       3.99132000       4.46692000       6.09268000      -0.21521200      -1.96607600      -0.25853400      -0.27117938      -2.19236874      -0.17307494
Fe       4.03283000       6.20484000       2.50717000       0.32509400      -1.83048700       1.07686200       0.42151117      -1.76074262       1.08311455
Fe       2.62183000       8.12097000       1.25125000      -5.45108600      -1.04608100      -0.88869000      -5.54937072      -1.11379344      -0.68042685
Fe       2.34208000       7.49949000       3.33705000      -1.45221900       0.10179900       1.96325000      -1.29692967       0.11268939       1.61612761
Fe       4.67554000       0.98699000       8.35162000       1.97529500       0.95938300       0.07305200       1.72760190       0.88252168       0.32223066
Fe       4.68615000       2.28426000       1.60336000       6.03713100       4.39249100       1.56082500       6.21788898       4.38165892       1.11266442
Fe       4.95897000       4.28949000       0.91503000       1.24258400       3.77490300      -1.07876200       0.80472735       3.59174821      -1.18429621
Fe       5.62605000       3.84953000       3.25301000      -4.56775200       3.43217100       2.09526400      -4.68747581       3.47866006       1.90920023
Fe       5.63153000       5.70233000       4.67966000       0.04558900       0.36352900      -0.74034800       0.10602290      -0.04130230      -0.59000998
Fe       5.00954000       6.14620000       6.89198000       4.51113600      -2.60361300       1.43664400       4.56545211      -2.51083246       1.30876045
Fe       5.34723000       7.32984000       0.56425000       3.41130600      -7.55812200      -7.44238600       3.32063653      -7.15355683      -7.16557551
Fe       4.57141000       8.20633000       1.67615000      -2.51651100       6.57056000       9.11650700      -2.49305304       6.15439501       8.86494767
Fe       5.67084000       7.83697000       6.02451000      -0.02983000       3.57151200       0.33120700      -0.04678581       3.66157358       0.42365088
Fe       7.65837000       1.05332000       0.64336000       1.95813700       2.93603900      -3.62028800       1.83816104       2.82578758      -3.44336792
Fe       7.23579000       1.49494000       3.62009000       0.88838800      -1.50203300       3.00240400       1.06754774      -1.47658982       2.99749745
Fe       6.96409000       1.59543000       6.70415000       0.40175100      -2.57633900      -0.54943900       0.44684933      -2.42729285      -0.50787216
Fe       6.97946000       3.05325000       2.27831000       3.01329100      -2.85779700      -7.80747400       2.63570936      -2.91582139      -7.40323838
Fe       7.05854000       3.62734000       7.13255000       0.94483300       2.42104600       2.56329500       1.00778821       2.33317227       2.38116224
Fe       7.47490000       4.49325000       0.92243000      -3.13561000       0.06366500       0.11142200      -2.82385032       0.40367101      -0.12276606
Fe       7.76499000       5.40883000       4.05655000       3.42051700      -2.49950500       1.10150300       3.55566695      -2.64439200       1.13079147
Fe       6.91686000       6.16423000       2.38917000      -4.34160700       0.52717700      -3.24358900      -4.34404184       0.81586103      -3.24652179
Fe       7.31773000       7.39473000       4.73130000      -1.41907300       3.06948200       1.38572900      -1.44524345       2.96978001       1.35577140
B        1.63947000       5.44017000       2.85377000      -1.37965300       1.67099600      -0.34434500      -1.46573618       1.72444060      -0.57307288
B        3.47444000       1.29905000       1.69513000      -6.04542900      -7.46227000      -1.52467000      -6.10224586      -6.99581602      -1.27198791
B        2.31673000       1.42955000       3.77944000      -1.85652800      -2.14982900       3.21956500      -1.80381999      -1.97455455       3.34546929
B        3.17088000       0.01260000       8.16689000      -2.14308300      -0.12737100      -3.63430700      -2.09725631       0.12710319      -3.50601940
B        2.48887000       2.23189000       2.44876000      -1.30373000       3.96631200      -0.94871100      -0.90827800       3.75245095      -1.24627100
B        3.55016000       3.21990000       0.17024000       2.13469500      -3.52588700       0.23974700       2.14470149      -3.57385607       0.38546900
B        3.12966000       3.07291000       4.24572000      -6.99085300       0.34377600      -0.16579100      -6.92633881       0.13519799      -0.17821665
B        2.38358000       5.95301000       6.34325000       2.25901800      -8.76611800      -6.31465800       2.11400696      -9.06818576      -6.41440756
B        4.46260000       2.62992000       4.23823000       7.08507900      -1.75449200       0.40993300       7.01650923      -1.84876402       0.35761818
B        7.51183000       3.59374000       3.85724000       1.49621300      -1.20378300       3.39561400       1.50345804      -1.02765986       3.22593464
Si       0.50050000       1.66927000       5.10425000      -1.02554400      -2.67263500       2.61432900      -0.78294638      -2.98622882       2.60677475
Si       0.41923000       4.50138000       8.15701000       0.82744200      -0.47721100      -2.57541600       1.09425812      -0.42812421      -2.76540742
Si       2.90131000       4.25049000       1.93860000       2.71957100       0.04497600      -0.88170100       2.72529415      -0.00351012      -1.03792836
Si       3.74353000       6.85388000       5.19884000      -1.20766000       1.80214700      -2.20114300      -1.07619478       1.92505974      -2.10474656
Si       3.54209000       6.47938000       8.21357000      -0.45014500      -1.75854100       4.24377300      -0.58766853      -2.03377811       4.42315572
Si       4.55252000       1.74669000       6.40118000       0.28733400       0.20348600      -1.69136000       0.26314414       0.20035676      -1.63055620
Si       5.87020000       3.30923000       5.41310000       1.93974000       0.55942400      -1.14043100       1.68130728       0.83779713      -1.17716128
Si       6.68392000       0.09389000       2.07850000      -2.78148600      -1.30329400       2.70552900      -2.56651963      -1.26275994       2.84211598
Si       7.30980000       7.36953000       0.08595000       4.18267400      -0.22507900      -1.67891000       4.36179226      -0.41023841      -1.73956973
Si       8.41387000       7.50606000       2.97540000       5.08859000       1.78741200      -0.88875800       5.01818806       1.88455669      -0.86762211
54
Lattice="8.579999685 0.0 0.0 0.0 8.579999685 0.0 0.0 0.0 8.5799996" Properties=species:S:1:pos:R:3:REF_forces:R:3:MACE_forces:R:3 config_type=Fe34B10Si10 REF_energy=-359.84864784 MACE_energy=-360.4625945713735 pbc="T T T"
Fe       0.39531000       2.37288000       0.87042000       3.27925500       2.43832800      -1.60261100       3.17649535       2.67957039      -1.73723013
Fe       0.75383000       1.65209000       3.11094000       1.30783500      -0.34615400      -0.09267000       1.33404770      -0.75946746       0.04309746
Fe       1.33201000       3.79282000       7.26231000      -2.40668100      -1.18131200       0.32245500      -2.51921059      -1.18557856       0.21177874
Fe       0.64436000       4.41396000       2.97573000       2.42004200      -2.26182600       0.38963900       2.45763755      -2.06325145       0.22015899
Fe       0.14751000       6.42079000       3.51005000      -3.07002100       1.32407200      -2.30638400      -3.15238408       1.32742679      -2.47855510