54
Lattice="8.579999685 0.0 0.0 0.0 8.579999685 0.0 0.0 0.0 8.5799996" Properties=species:S:1:pos:R:3:REF_forces:R:3:MACE_forces:R:3 config_type=Fe34B10Si10 REF_energy=-352.89092233 MACE_energy=-354.277616443923 pbc="T T T"
Fe       1.46495000       0.71583000       1.12880000       3.73230100      -3.41607500      -3.76209700       3.60519987      -3.09705087      -3.23419998
Fe       0.56244000       2.07917000       1.96452000      -3.31290700       4.06628900       2.54508600      -3.58995974       3.91125089       1.91369890
Fe       0.86636000       2.12990000       5.00906000     -10.85567700      -2.87102900      12.20968700     -10.48528969      -2.65419512      12.20692615
Fe       0.24697000       2.61233000       7.83061000      -0.37811800      -2.03816900      -0.08744800      -0.37626393      -2.58969819       0.27583661
Fe       0.35437000       4.66395000       8.16447000      -1.30300600       1.62250000       0.84662400      -1.47132286       2.28486775       0.99037864
Fe       0.83543000       8.00840000       3.01492000       5.54921000      -2.55787300       0.52513800       5.65517331      -2.87874580       1.12043058
Fe       2.03952000       7.84431000       6.63062000      -4.28706100       1.82495200      -1.68802900      -4.46072050       2.21568062      -1.75856655
Fe       3.34318000       0.11090000       2.96052000      -0.46571400      -0.35056300       0.37864800      -0.53920755      -0.15505740       0.73769609
Fe       3.26317000       2.11539000       1.48699000      -3.47884800      -0.03222100       0.61542300      -3.22466433       0.03317254      -0.36304314
Fe       4.14313000       2.75755000       3.31065000      -0.71378000      -2.73118300       1.93004800      -0.15178794      -2.02307550       1.65125930
Fe       2.55051000       2.67374000       7.19710000      -2.55215900      -0.93589000       1.77261600      -2.37003401      -1.00319047       1.85952269
Fe       3.61327000       2.86500000       5.46497000       1.55763200       0.20514300      -0.56676300       1.53305562       0.49891856      -0.89697657
Fe       2.62400000       4.72550000       1.39174000      -1.08585200      -1.19598700       0.59645400      -1.03858168      -1.19336320       0.63604322
Fe       2.20317000       5.21693000       3.87451000      -3.92870900      -4.38103900      -4.92199500      -3.77143058      -4.52236719      -5.58190901
Fe       3.93082000       4.37819000       8.08226000       1.07616800       0.44807800      -0.99700400       1.21151028       0.40170783      -0.29116137
Fe       2.44961000       7.01753000       1.08943000       0.32119000      -1.55635000       3.27006500       0.49747826      -1.28433740       2.69695989
Fe       3.02500000       6.15780000       5.08193000      -1.08486800       1.64126100       3.95415400      -0.07680257       1.78330757       4.74609061
Fe       5.77712000       0.44616000       0.16142000      -2.43333700       0.07175000       4.13474700      -2.00546174       0.20164168       4.18464355
Fe       5.66964000       0.14892000       2.95259000      -3.67617900       1.90971100       0.12919700      -3.63125148       2.01157345       0.05550465
Fe       5.39484000       2.66317000       1.55162000       4.08183700      -3.39937100       3.88213200       3.75527465      -3.40716897       3.95993198
Fe       5.91309000       3.40423000       8.31953000       8.90196200       5.48305700      -2.72562400       8.06939633       5.50167989      -2.97305362
Fe       4.96126000       4.63305000       3.41410000      -3.60269200      -2.00302700       2.25051900      -3.74287528      -1.99844269       3.33502760
Fe       5.11347000       6.81217000       1.78872000      -0.87770500       0.06714300      -1.61156800      -0.80436941       0.11377529      -1.97966229
Fe       5.00950000       6.45991000       8.24507000      -2.30619500      -0.19808200      -1.52355700      -2.26606487      -0.48475137      -1.96217497
Fe       4.64263000       7.71190000       5.75084000       2.50156800       4.23919200      -1.55456800       2.72956253       4.45108120      -1.43750230
Fe       7.32285000       0.33022000       5.03535000      -0.99210900      -0.59745100       4.73628300      -0.68529789      -0.44565911       4.48559249
Fe       6.75330000       1.32958000       7.05071000       0.53851300       2.01290400       0.36400700       0.46789091       1.25793842       0.45328615
Fe       6.82686000       2.53028000       3.66692000      -0.08907100      -0.12987400      -0.26318300       0.25654568      -0.12825496      -0.55984788
Fe       6.83617000       5.56618000       0.59386000       1.74434500       1.47371700      -3.32847200       1.45397077       0.99665091      -3.26310899
Fe       8.27091000       4.29855000       2.87718000       3.23308900       0.33980500       1.37352500       3.06687151      -0.02041100       1.32090383
Fe       6.58774000       4.90718000       4.97515000      -1.87594500       0.58060600      -0.05143700      -2.39319568       1.50960392      -1.42376864
Fe       6.86773000       6.79187000       3.27473000       1.52763600      -2.76254700       0.67579100       1.42972939      -2.52738164       0.59577794
Fe       8.09083000       8.29691000       0.84396000      -4.18921500      -1.95965200       9.56442300      -3.75510614      -1.40249131       9.92401857
Fe       6.62133000       7.67903000       7.47205000      -3.65417600       1.51975600      -3.32990400      -4.49177816       1.45843583      -3.95889174
B        3.45077000       6.81738000       6.75435000       2.04131500      -2.79808300       3.80923700       2.22423762      -3.21496041       3.74234800
B        4.67436000       1.10514000       4.73414000       0.75036200       0.95391600      -0.52852700       0.24613708       0.09536381      -0.31248265
B        6.18153000       2.20088000       5.47737000      -4.49435700      -3.20609500      -2.27763700      -4.38535159      -2.69987828      -2.31434715
B        5.08133000       4.10197000       6.35983000       0.35152900       0.25548900      -0.65354500       0.39572248       0.04191544      -0.12668206
B        4.48663000       4.29393000       1.40792000      -0.27448100       1.04603100       0.21283300      -0.44641558       1.01602578       0.00576668
B        4.96286000       5.88068000       6.14703000       0.60492000      -1.85032800       0.29314600       0.08223999      -1.35881023       0.55192694
B        8.17242000       5.65216000       5.55863000       1.00443800       0.65677900      -0.69824300       2.44563392      -0.09401988      -0.66698563
B        7.98743000       6.92663000       6.60530000       5.86774900       2.58695800      -4.05103700       4.95532299       2.48585279      -2.79293868
B        7.10769000       5.72812000       6.91109000      -2.33709700      -3.34606800       1.34633400      -2.39160922      -3.09400815       1.81886116
B        7.81665000       6.81498000       8.33858000       5.04350100      -2.41043400       0.97359300       4.95517518      -3.10442842       0.28900975
Si       0.06983000       0.14925000       7.74742000       4.12649000       2.60901100      -8.87608100       4.25560665       2.84230445      -8.83872983
Si       1.93337000       2.41223000       3.74634000      10.14534600       2.98113100     -12.18526000       9.77404051       2.75081231     -11.45869209
Si       0.75978000       6.02813000       1.69309000      -4.13401100      -0.74920300       1.02787300      -3.51618544      -1.13444400       0.74682446
Si       2.22023000       5.10313000       7.16329000      -1.58663400       1.19675500      -1.89967800      -1.47571134       1.29188742      -1.87184870
Si       3.27754000       8.17117000       8.35443000       4.04667900       4.58101600      -2.24829100       3.68110142       4.58374420      -1.79331257
Si       4.48145000       2.18337000       8.34202000      -5.72220500      -5.96162700      -4.99603400      -5.75570158      -5.92373968      -4.83178999
Si       6.36439000       4.54151000       2.12641000       2.28764700      -2.33178900       1.39384200       2.28379616      -2.06538987       0.82393035
Si       4.52267000       6.51460000       3.75633000       0.42177200       5.22743800       1.25328700       0.40822953       4.98871433       0.70257640
Si       7.68278000       0.22257000       3.11016000      -0.17295300       4.89916800      -3.86478000      -0.38840909       4.44122301      -4.02576392
Si       7.35363000       3.38410000       6.13231000       4.40786200       1.27045000       2.62604800       4.25194719       1.33619121       2.88666715
54
Lattice="8.579999685 0.0 0.0 0.0 8.579999685 0.0 0.0 0.0 8.5799996" Properties=species:S:1:pos:R:3:REF_forces:R:3:MACE_forces:R:3 config_type=Fe34B10Si10 REF_energy=-354.71875992 MACE_energy=-354.47918541165177 pbc="T T T"
Fe       0.43313000       1.19321000       2.96848000       1.47291300       2.99028000       0.61180900       1.94382590       2.57763893       0.59280136
Fe       0.91365000       1.12516000       8.09995000       2.76260400      -2.00335600       1.20968300       2.70184660      -1.77916723       1.53129218
Fe       1.17142000       2.67870000       5.23446000      -1.90323000       6.04651700       0.58026800      -2.69249580       6.60058146       0.45981780
Fe       0.60772000       3.85484000       0.87278000       2.66909500       4.89444800       4.53699300       2.56261444       5.44245226       4.32725739
Fe       1.41565000       3.44858000       3.01161000      -0.29549500       2.03729500      -0.74017400       0.42487696       1.67979380      -0.52138216
Fe       0.04226000       2.91249000       8.09734000      -3.39897200      -2.84207300      -2.69442200      -3.89771208      -3.36485726      -3.31466441
Fe       1.33282000       7.09057000       5.22634000      -0.45239700      -1.35392500       0.92503500       0.03618799      -1.36784603       0.74668005
Fe       2.06045000       7.92051000       0.98063000      -3.11321000      -0.30108300      -2.49280600      -3.71223800      -0.42695279      -2.63661662
Fe       2.03627000       8.24295000       3.50701000      -1.42216600       4.38122900       0.88517600      -1.62513724       4.03307433       0.54418492
Fe       0.01253000       8.02686000       7.00667000       2.58679700       0.98610200     -11.80201700       2.12821676       0.57729986     -11.73180631
Fe       3.00353000       0.57289000       6.13981000      -1.03922300       0.18357300       0.93137300      -0.59042818       0.59857022       0.73284717
Fe       3.69949000       2.65196000       7.51811000       2.76433000      -4.34399200      -3.80269000       1.72141391      -3.93758551      -4.04224300
Fe       2.94478000       6.44154000       3.03987000       7.21319500      -3.66655800      -1.17614100       7.38481297      -2.80921186      -0.45481585
Fe       2.94309000       5.75189000       6.64956000      -6.24071800      -0.74678300       3.86021800      -6.02261440      -0.78291330       4.57765517
Fe       3.71160000       8.39321000       1.86324000       2.24845700      -0.43546600       0.28887200       3.19124898      -0.09563969       1.04103862
Fe       4.07810000       8.43915000       4.32840000       2.88035800       1.28304800      -0.49181300       2.71020628       1.61362791      -0.71952283
Fe       5.57499000       0.73262000       6.31633000      -3.12774100      -1.68249800      -0.98058200      -2.87982583      -2.38868153      -1.56592018
Fe       4.70712000       1.94493000       1.65492000      -2.04675700       4.97917500      -3.67899600      -1.08877574       4.65350990      -4.06248240
Fe       4.73401000       4.18392000       1.24748000       0.71501700       1.80608500      -0.06999200       0.75833846       1.64174522       0.10966213
Fe       4.56687000       4.22266000       4.39618000       0.73801700       3.32591500      -2.10569900       0.26708877       4.29468632      -2.64967682
Fe       4.51224000       4.61167000       7.05684000       2.53211900      -0.41024200       0.53825400       2.82396191      -0.21253697       0.36583837
Fe       6.32808000       6.81945000       4.24288000      -3.20445400      -0.33519400      -1.28892300      -2.67543823      -0.46853781      -1.20699528
Fe       6.22240000       7.17309000       0.16230000      -3.30904600      -2.75215800       1.90373500      -3.10203680      -3.02648061       1.94266421
Fe       4.54224000       7.44382000       7.03838000       0.17895600      -5.02037800      -8.74618400       0.01511192      -4.97484378      -7.80535676
Fe       4.73272000       8.55832000       8.35561000      -0.10588400       8.96287400       6.54083400      -1.15074833       8.29861269       5.33039514
Fe       7.67285000       2.82429000       2.17742000      -2.12886900      -0.76272600      -2.06587500      -2.41383757      -0.87578976      -2.08345661
Fe       6.74071000       1.77406000       4.33655000       0.47479500       0.50025500      -0.42349800       0.05558953       0.64048967      -0.62841178
Fe       7.16362000       1.61896000       6.68131000       5.11373900       1.83737400       0.70818800       5.10793521       1.82487370       1.07399779
Fe       6.73653000       4.13840000       7.84564000       0.19062300       0.32905600       3.59274800       0.08869000       1.34389409       3.79001151
Fe       6.61248000       5.35948000       2.44590000       0.96755600      -0.77403900      -0.47053600       0.59692061      -0.59135418      -0.36588228
Fe       8.39074000       4.95678000       4.82580000       0.50677700       3.21370700       1.22596300       0.85620215       2.86561076       1.10502544
Fe       6.62275000       6.29700000       6.29237000       0.91106900      -0.58785400       1.74696000       0.66037914      -0.58415182       1.81205445
Fe       8.00875000       8.14674000       2.12563000      -1.25903800      -1.94608200      -3.37077000      -1.41096823      -1.56435133      -3.90715313
Fe       7.96861000       8.10559000       4.08816000       1.24434400       0.03207600       4.40361200       1.01808445       0.35478658       4.61399537
B        3.14587000       1.61638000       2.59818000      -3.96044800      -1.57388800      -2.24367700      -3.81029317      -0.91102428      -1.37686006
B        4.07212000       1.93087000       3.78701000       0.55534200       0.12762300      -3.25123200       0.99726908      -1.31319307      -3.63988066
B        2.24412000       1.90783000       4.05913000      -1.80380000      -9.70850100      -5.48536600      -2.74997093     -11.17062668      -4.84864785
B        2.90130000       3.06657000       4.45062000       2.48509300       7.60479000      -1.50334300       3.13528988       8.11596471      -1.43947149
B        2.82587000       3.80138000       5.80651000       0.21675600       2.27927400       3.92227300       0.64718826       2.55286818       3.27148499
B        2.60929000       5.04297000       1.66311000       0.12617300      -0.77075900      -0.46531300      -0.09986321      -0.79894897      -0.44559179
B        2.47198000       4.95014000       4.32601000      -0.76752800      -1.31946700       0.35153300      -0.78350190      -1.69644969       0.62413128
B        2.73354000       7.81887000       7.66829000      -1.47869400      -0.15377200       0.00458000      -0.93657625      -0.16645362       0.08323072
B        5.68071000       2.28134000       7.79544000      -0.95924500       0.41857400       1.11780500      -0.45566397      -0.05931411       0.95683848
B        7.77536000       3.70665000       3.76574000      -0.44877700      -1.48394500      -0.38974400      -0.73941138      -1.41884935      -0.19445201
Si       0.79518000       0.92195000       5.77957000      -1.66645900      -4.94136200      -1.10925300      -1.32134291      -4.80460891      -0.87381772
Si       0.88055000       4.20706000       6.73551000       1.15626000       3.58432200      -0.32349000       1.15617621       3.48740792       0.13184834
Si       1.15025000       6.44729000       2.43826000      -7.77651300      -1.83655100      -1.54918700      -8.01483457      -1.64881162      -1.99019709
Si       2.82820000       3.29548000       0.50208000      -4.05499500       1.58525200       5.32597100      -3.56860510       1.25948170       4.68184612
Si       4.14031000       6.38272000       0.30005000      -2.16949800      -2.44928300       2.57761000      -2.12407802      -2.17123507       2.06146561
Si       3.68345000       6.43010000       5.01209000       3.98893100       0.98565200      -2.13453700       3.85128246       1.23833687      -2.19563193
Si       5.73751000       0.59059000       2.53265000       5.08228400      -4.90021500       2.23852200       4.54530726      -4.56156714       2.85692204
Si       4.51163000       2.47994000       5.36819000       2.60737700      -2.86786400       7.12589500       2.60509857      -2.73404034       7.18307242
Si       6.43436000       3.75222000       5.86206000       1.38008400       0.66155200      -3.64612400       1.01977047       0.39966709      -3.27556382
Si       8.06432000       7.52318000       8.55473000       2.36409700      -3.06603600      11.34847700       2.85546269      -3.38894985      11.42844172
18
Lattice="6.5 0.0 0.0 0.0 6.5 0.0 0.0 0.0 6.5" Properties=species:S:1:pos:R:3:REF_forces:R:3:MACE_forces:R:3 config_type=Fe12B3Si3 REF_energy=-113.87843945 MACE_energy=-121.18355756281096 pbc="T T T"
Fe       5.40234000       5.43492000       1.53729000      -1.39532100       2.04028400       0.71142300      -2.61188884       2.69046439       1.17060364
Fe       2.09750000       2.10361000       0.54730000       2.35673700      -0.33103000       1.27254800       2.86840555      -0.56862569       2.68317967
Fe       2.84360000       1.73250000       3.81271000       2.28004000      -1.18251600      -0.27344700       2.26600150      -1.23445854      -0.47459481
Fe       0.77541000       4.93717000       1.04317000       1.56096300      -3.83372900       1.76362000       2.47227374      -3.98685709       1.61996811
Fe       0.07665000       3.70431000       3.74351000      -0.75952900      -0.39175400      -2.23189700      -1.06849488      -0.38425828      -2.18749956
Fe       4.77171000       3.58949000       4.78220000      -1.99219600      -4.62409700       0.48420500      -1.40590109      -4.42412509       0.35981955
Fe       4.12430000       1.49867000       1.46476000       0.29771700      -2.38794700       0.28396300       0.46721719      -3.64038077       0.88275600
Fe       0.95387000       5.17746000       5.28728000      -0.57085000      -0.50160400      -1.80733600      -0.61447331       0.11832053      -1.35526264
Fe       1.93602000       3.09888000       2.36598000      -0.08855100       0.43128300      -0.27209000      -0.21558385       1.01404539      -0.88102091
Fe       5.69037000       1.28357000       4.20026000      -0.40866000      -0.49067900       0.18976600      -0.62397621      -0.50615482       0.30434697
Fe       1.94321000       2.86141000       5.39871000      -0.55906500       0.73218900      -1.80086600      -0.94694939       1.93071301      -2.43187441
Fe       4.33122000       5.38124000       5.25469000      -0.73272900       4.56545400       1.52017900      -0.81461161       4.61389751       1.26230006
B        0.37598000       1.64060000       1.21420000      -3.21263000       2.85095800       0.76078000      -3.42567942       2.78343648       0.13744579
B        1.88110000       4.04794000       3.96741000       2.48956600       2.45119300      -0.32261600       2.63960775       2.12950892      -0.34415785
B        3.63878000       0.94242000       5.41981000      -0.01444500       0.67937600       0.95779200       0.43795611      -0.00637429       0.84315408
Si       1.19380000       0.26963000       0.19686000       0.54051800       0.24528300      -1.93219100       0.57506993      -0.22563550      -2.15278510
Si       4.57825000       3.47658000       1.16117000       0.15934200       1.26766700      -0.81102600      -0.17031952       1.45152691      -0.92676493
Si       1.09558000       0.76720000       2.75124000       0.04909300      -1.52033200       1.50719200       0.17134635      -1.75504307       1.49038635
54
Lattice="8.579999685 0.0 0.0 0.0 8.579999685 0.0 0.0 0.0 8.5799996" Properties=species:S:1:pos:R:3:REF_forces:R:3:MACE_forces:R:3 config_type=Fe34B10Si10 REF_energy=-356.0869274 MACE_energy=-356.66892725335885 pbc="T T T"
Fe       0.92877000       1.08311000       2.12831000      -0.53214900      -1.15432400       0.53007800      -0.42578265      -0.54037426       0.62113814
Fe       1.12794000       0.45096000       7.37327000      -2.86345100       2.18226700       1.45805300      -2.54382889       2.20526385       1.77080993
Fe       0.91289000       3.61082000       1.96264000      -1.66570100       0.50807500      -4.76654600      -2.43850540       0.01142854      -4.50397374
Fe       0.97242000       3.25012000       3.83975000      -0.85629000      -1.23507100      -0.91491200      -0.27667266      -0.66779170      -0.13797092
Fe       1.43574000       3.84332000       5.84621000      -1.94378300      -0.72872400       4.94145300      -1.72181472      -0.89023248       4.09586760
Fe       0.45897000       5.99881000       1.32384000       1.86679900       1.45939200      -0.33976700       2.11630207       1.88022260      -0.35114053
Fe       0.05714000       6.25044000       6.01250000       0.66851500      -0.88142700       1.67028200       1.24353489      -1.15849197       1.83024806
Fe       1.87526000       7.05991000       7.27744000      -5.90957000       6.81146600       5.95768600      -5.85786687       7.12155191       5.18232667
Fe       4.21220000       0.80536000       3.81626000       0.44958900      -1.97725700       0.54591300       0.37708356      -1.59740013      -0.13551820
Fe       2.64196000       0.75311000       5.88605000       0.80305000      -0.92688600      -1.50973400       0.47029668      -0.62473605      -1.52320643
Fe       2.51735000       4.27963000       7.86001000      -0.17185400       2.88247300       0.00075600      -0.48157427       2.41866131      -0.62444076
Fe       2.46175000       4.76211000       4.38544000       2.27245000       6.36429500      -0.60000700       2.21203570       5.41046582      -0.97250454
Fe       3.99132000       4.46692000       6.09268000      -0.21521200      -1.96607600      -0.25853400      -0.59515317      -2.13783104      -0.70780063
Fe       4.03283000       6.20484000       2.50717000       0.32509400      -1.83048700       1.07686200       0.58908958      -1.80763490       0.79127096
Fe       2.62183000       8.12097000       1.25125000      -5.45108600      -1.04608100      -0.88869000      -4.55600308      -1.30114291      -0.65245503
Fe       2.34208000       7.49949000       3.33705000      -1.45221900       0.10179900       1.96325000      -1.38740568       0.27458839       1.91300094
Fe       4.67554000       0.98699000       8.35162000       1.97529500       0.95938300       0.07305200       2.37085677       1.02225905       0.58816523
Fe       4.68615000       2.28426000       1.60336000       6.03713100       4.39249100       1.56082500       7.22643449       4.59431461       1.41688617
Fe       4.95897000       4.28949000       0.91503000       1.24258400       3.77490300      -1.07876200       1.76688407       3.44436600      -1.41421294
Fe       5.62605000       3.84953000       3.25301000      -4.56775200       3.43217100       2.09526400      -4.44733797       3.44236909       1.07270643
Fe       5.63153000       5.70233000       4.67966000       0.04558900       0.36352900      -0.74034800      -0.61869059      -0.20091392      -0.55772713
Fe       5.00954000       6.14620000       6.89198000       4.51113600      -2.60361300       1.43664400       3.64092046      -2.42479399       1.36860528
Fe       5.34723000       7.32984000       0.56425000       3.41130600      -7.55812200      -7.44238600       3.22612818      -6.74939120      -7.13674709
Fe       4.57141000       8.20633000       1.67615000      -2.51651100       6.57056000       9.11650700      -3.01341369       6.11197076       8.83140581
Fe       5.67084000       7.83697000       6.02451000      -0.02983000       3.57151200       0.33120700       0.00733736       4.40876446       0.45057310
Fe       7.65837000       1.05332000       0.64336000       1.95813700       2.93603900      -3.62028800       1.63108216       2.85009149      -3.76837141
Fe       7.23579000       1.49494000       3.62009000       0.88838800      -1.50203300       3.00240400       0.43084550      -1.19082284       3.11160309
Fe       6.96409000       1.59543000       6.70415000       0.40175100      -2.57633900      -0.54943900       0.46312481      -3.11207169      -0.47658257
Fe       6.97946000       3.05325000       2.27831000       3.01329100      -2.85779700      -7.80747400       2.49695747      -3.80784557      -6.31455713
Fe       7.05854000       3.62734000       7.13255000       0.94483300       2.42104600       2.56329500       0.98003377       2.91069232       2.19276783
Fe       7.47490000       4.49325000       0.92243000      -3.13561000       0.06366500       0.11142200      -3.26116823       0.71435622      -0.77283514
Fe       7.76499000       5.40883000       4.05655000       3.42051700      -2.49950500       1.10150300       3.57089622      -2.29392593       0.83281923
Fe       6.91686000       6.16423000       2.38917000      -4.34160700       0.52717700      -3.24358900      -4.83451469       0.18698118      -2.78991877
Fe       7.31773000       7.39473000       4.73130000      -1.41907300       3.06948200       1.38572900      -1.15061343       3.34815002       0.91680621
B        1.63947000       5.44017000       2.85377000      -1.37965300       1.67099600      -0.34434500      -1.48543771       1.59044780      -0.16894319
B        3.47444000       1.29905000       1.69513000      -6.04542900      -7.46227000      -1.52467000      -5.71149110      -7.34932019      -0.99554454
B        2.31673000       1.42955000       3.77944000      -1.85652800      -2.14982900       3.21956500      -1.32568090      -1.75785991       2.86907448
B        3.17088000       0.01260000       8.16689000      -2.14308300      -0.12737100      -3.63430700      -1.74827847      -0.50385102      -2.99545828
B        2.48887000       2.23189000       2.44876000      -1.30373000       3.96631200      -0.94871100      -1.03491815       3.94336987      -0.09926659
B        3.55016000       3.21990000       0.17024000       2.13469500      -3.52588700       0.23974700       1.58540273      -3.44729331       0.73472428
B        3.12966000       3.07291000       4.24572000      -6.99085300       0.34377600      -0.16579100      -7.03989726       0.09229911       0.07809414
B        2.38358000       5.95301000       6.34325000       2.25901800      -8.76611800      -6.31465800       2.46761822      -9.37667904      -6.36551624
B        4.46260000       2.62992000       4.23823000       7.08507900      -1.75449200       0.40993300       5.93796910      -2.07722409      -0.05021512
B        7.51183000       3.59374000       3.85724000       1.49621300      -1.20378300       3.39561400       1.51884184      -0.96897648       3.48859863
Si       0.50050000       1.66927000       5.10425000      -1.02554400      -2.67263500       2.61432900      -0.66061006      -2.57699448       2.30583514
Si       0.41923000       4.50138000       8.15701000       0.82744200      -0.47721100      -2.57541600       0.98010861      -0.09262819      -2.70782321
Si       2.90131000       4.25049000       1.93860000       2.71957100       0.04497600      -0.88170100       2.68975215       0.02179612      -0.66660217
Si       3.74353000       6.85388000       5.19884000      -1.20766000       1.80214700      -2.20114300      -1.22535492       1.48140896      -1.79030580
Si       3.54209000       6.47938000       8.21357000      -0.45014500      -1.75854100       4.24377300      -0.39854332      -1.71214742       4.53480180
Si       4.55252000       1.74669000       6.40118000       0.28733400       0.20348600      -1.69136000      -0.23473398       0.26650879      -1.49799488
Si       5.87020000       3.30923000       5.41310000       1.93974000       0.55942400      -1.14043100       1.91103730       0.99096112      -0.80279467
Si       6.68392000       0.09389000       2.07850000      -2.78148600      -1.30329400       2.70552900      -2.59018834      -1.39896063       2.45949981
Si       7.30980000       7.36953000       0.08595000       4.18267400      -0.22507900      -1.67891000       4.25273549      -0.93692212      -1.74457390
Si       8.41387000       7.50606000       2.97540000       5.08859000       1.78741200      -0.88875800       4.90217100       1.96096802      -0.73262740
54
Lattice="8.579999685 0.0 0.0 0.0 8.579999685 0.0 0.0 0.0 8.5799996" Properties=species:S:1:pos:R:3:REF_forces:R:3:MACE_forces:R:3 config_type=Fe34B10Si10 REF_energy=-359.84864784 MACE_energy=-360.7450801908347 pbc="T T T"
Fe       0.39531000       2.37288000       0.87042000       3.27925500       2.43832800      -1.60261100       2.98591467       2.69907968      -1.57065590
Fe       0.75383000       1.65209000       3.11094000       1.30783500      -0.34615400      -0.09267000       0.69748104      -0.63046648       0.26627952
Fe       1.33201000       3.79282000       7.26231000      -2.40668100      -1.18131200       0.32245500      -1.99567588      -0.69143145       0.73848961
Fe       0.64436000       4.41396000       2.97573000       2.42004200      -2.26182600       0.38963900       2.10079638      -2.18157416       0.56158711
Fe       0.14751000       6.42079000       3.51005000      -3.07002100       1.32407200      -2.30638400      -3.01584740       1.11327547      -2.33959728