54
Lattice="8.579999685 0.0 0.0 0.0 8.579999685 0.0 0.0 0.0 8.5799996" Properties=species:S:1:pos:R:3:REF_forces:R:3:MACE_forces:R:3 config_type=Fe34B10Si10 REF_energy=-352.89092233 MACE_energy=-353.2672621868596 pbc="T T T"
Fe       1.46495000       0.71583000       1.12880000       3.73230100      -3.41607500      -3.76209700       3.64328186      -3.43352180      -3.50833146
Fe       0.56244000       2.07917000       1.96452000      -3.31290700       4.06628900       2.54508600      -3.34384465       4.05646413       2.34198696
Fe       0.86636000       2.12990000       5.00906000     -10.85567700      -2.87102900      12.20968700     -10.87813404      -2.94383651      12.20605062
Fe       0.24697000       2.61233000       7.83061000      -0.37811800      -2.03816900      -0.08744800      -0.37561598      -2.04956377       0.08355586
Fe       0.35437000       4.66395000       8.16447000      -1.30300600       1.62250000       0.84662400      -1.35786907       1.77424001       0.77327847
Fe       0.83543000       8.00840000       3.01492000       5.54921000      -2.55787300       0.52513800       5.61142585      -2.63496587       0.47161740
Fe       2.03952000       7.84431000       6.63062000      -4.28706100       1.82495200      -1.68802900      -4.08645715       2.02848235      -1.72925733
Fe       3.34318000       0.11090000       2.96052000      -0.46571400      -0.35056300       0.37864800      -0.49801819      -0.16715068       0.45317224
Fe       3.26317000       2.11539000       1.48699000      -3.47884800      -0.03222100       0.61542300      -3.30283561      -0.25082994       0.25883196
Fe       4.14313000       2.75755000       3.31065000      -0.71378000      -2.73118300       1.93004800      -0.69589316      -2.44357661       1.88082695
Fe       2.55051000       2.67374000       7.19710000      -2.55215900      -0.93589000       1.77261600      -2.24646913      -1.02650337       1.69157887
Fe       3.61327000       2.86500000       5.46497000       1.55763200       0.20514300      -0.56676300       1.45673552       0.28919957      -0.28970107
Fe       2.62400000       4.72550000       1.39174000      -1.08585200      -1.19598700       0.59645400      -1.33104481      -0.97991938       0.67405766
Fe       2.20317000       5.21693000       3.87451000      -3.92870900      -4.38103900      -4.92199500      -3.92958019      -4.33779450      -5.08688070
Fe       3.93082000       4.37819000       8.08226000       1.07616800       0.44807800      -0.99700400       0.94467278       0.23065190      -1.00079836
Fe       2.44961000       7.01753000       1.08943000       0.32119000      -1.55635000       3.27006500       0.44100270      -1.59308958       3.35032755
Fe       3.02500000       6.15780000       5.08193000      -1.08486800       1.64126100       3.95415400      -0.30622858       1.75453620       4.07877653
Fe       5.77712000       0.44616000       0.16142000      -2.43333700       0.07175000       4.13474700      -2.41646014       0.41253008       4.17459477
Fe       5.66964000       0.14892000       2.95259000      -3.67617900       1.90971100       0.12919700      -3.68730562       1.65628289       0.31771136
Fe       5.39484000       2.66317000       1.55162000       4.08183700      -3.39937100       3.88213200       3.98870965      -3.76448123       4.15353498
Fe       5.91309000       3.40423000       8.31953000       8.90196200       5.48305700      -2.72562400       8.73923898       5.39316991      -2.76011131
Fe       4.96126000       4.63305000       3.41410000      -3.60269200      -2.00302700       2.25051900      -3.88706641      -2.36757344       2.40065465
Fe       5.11347000       6.81217000       1.78872000      -0.87770500       0.06714300      -1.61156800      -0.73335006       0.13306580      -1.66339211
Fe       5.00950000       6.45991000       8.24507000      -2.30619500      -0.19808200      -1.52355700      -2.20926735      -0.02460477      -1.76940570
Fe       4.64263000       7.71190000       5.75084000       2.50156800       4.23919200      -1.55456800       2.55708747       4.28434445      -1.60762864
Fe       7.32285000       0.33022000       5.03535000      -0.99210900      -0.59745100       4.73628300      -0.95509174      -0.34963302       4.69393041
Fe       6.75330000       1.32958000       7.05071000       0.53851300       2.01290400       0.36400700       0.48715679       1.86446041       0.32503306
Fe       6.82686000       2.53028000       3.66692000      -0.08907100      -0.12987400      -0.26318300       0.03294876      -0.18981905      -0.19916593
Fe       6.83617000       5.56618000       0.59386000       1.74434500       1.47371700      -3.32847200       1.77816605       1.74337059      -3.48464810
Fe       8.27091000       4.29855000       2.87718000       3.23308900       0.33980500       1.37352500       3.08312503       0.17961543       1.32364341
Fe       6.58774000       4.90718000       4.97515000      -1.87594500       0.58060600      -0.05143700      -2.06784729       0.59583033      -0.49206952
Fe       6.86773000       6.79187000       3.27473000       1.52763600      -2.76254700       0.67579100       1.46953628      -2.44093576       0.36343099
Fe       8.09083000       8.29691000       0.84396000      -4.18921500      -1.95965200       9.56442300      -4.17718805      -2.22651619       9.64311351
Fe       6.62133000       7.67903000       7.47205000      -3.65417600       1.51975600      -3.32990400      -3.99344467       1.29693212      -3.46910902
B        3.45077000       6.81738000       6.75435000       2.04131500      -2.79808300       3.80923700       1.96823718      -2.88992246       3.90982476
B        4.67436000       1.10514000       4.73414000       0.75036200       0.95391600      -0.52852700       0.79425361       0.96172582      -0.42422319
B        6.18153000       2.20088000       5.47737000      -4.49435700      -3.20609500      -2.27763700      -4.63223021      -3.15559047      -2.47706136
B        5.08133000       4.10197000       6.35983000       0.35152900       0.25548900      -0.65354500       0.48558771       0.26362222      -0.56173936
B        4.48663000       4.29393000       1.40792000      -0.27448100       1.04603100       0.21283300      -0.23743925       1.23399682       0.22164518
B        4.96286000       5.88068000       6.14703000       0.60492000      -1.85032800       0.29314600       0.45768178      -1.83917877       0.12489074
B        8.17242000       5.65216000       5.55863000       1.00443800       0.65677900      -0.69824300       1.07428937       0.68552194      -0.23084047
B        7.98743000       6.92663000       6.60530000       5.86774900       2.58695800      -4.05103700       5.77186847       2.30319835      -3.51623202
B        7.10769000       5.72812000       6.91109000      -2.33709700      -3.34606800       1.34633400      -2.13169122      -3.43132243       1.49423255
B        7.81665000       6.81498000       8.33858000       5.04350100      -2.41043400       0.97359300       4.98471240      -2.57985595       0.48280172
Si       0.06983000       0.14925000       7.74742000       4.12649000       2.60901100      -8.87608100       3.96250845       2.56716351      -8.81230460
Si       1.93337000       2.41223000       3.74634000      10.14534600       2.98113100     -12.18526000      10.20919651       3.04224934     -12.01270519
Si       0.75978000       6.02813000       1.69309000      -4.13401100      -0.74920300       1.02787300      -4.13242548      -0.87697142       0.95547418
Si       2.22023000       5.10313000       7.16329000      -1.58663400       1.19675500      -1.89967800      -1.66523997       1.16785520      -1.84267254
Si       3.27754000       8.17117000       8.35443000       4.04667900       4.58101600      -2.24829100       3.90306128       4.50760836      -2.36558213
Si       4.48145000       2.18337000       8.34202000      -5.72220500      -5.96162700      -4.99603400      -5.45311259      -5.89102150      -5.16089967
Si       6.36439000       4.54151000       2.12641000       2.28764700      -2.33178900       1.39384200       2.58238975      -2.14810527       1.23749599
Si       4.52267000       6.51460000       3.75633000       0.42177200       5.22743800       1.25328700       0.12363312       5.31682188       1.34944706
Si       7.68278000       0.22257000       3.11016000      -0.17295300       4.89916800      -3.86478000      -0.22447252       4.86061370      -3.93125016
Si       7.35363000       3.38410000       6.13231000       4.40786200       1.27045000       2.62604800       4.40511576       1.43273040       2.96048957
54
Lattice="8.579999685 0.0 0.0 0.0 8.579999685 0.0 0.0 0.0 8.5799996" Properties=species:S:1:pos:R:3:REF_forces:R:3:MACE_forces:R:3 config_type=Fe34B10Si10 REF_energy=-354.71875992 MACE_energy=-355.3678605105152 pbc="T T T"
Fe       0.43313000       1.19321000       2.96848000       1.47291300       2.99028000       0.61180900       1.46933678       2.89305059       0.38748478
Fe       0.91365000       1.12516000       8.09995000       2.76260400      -2.00335600       1.20968300       2.38460061      -1.81986328       1.09405866
Fe       1.17142000       2.67870000       5.23446000      -1.90323000       6.04651700       0.58026800      -1.67725879       6.13215088       0.36376505
Fe       0.60772000       3.85484000       0.87278000       2.66909500       4.89444800       4.53699300       2.66098794       5.09968838       4.11523552
Fe       1.41565000       3.44858000       3.01161000      -0.29549500       2.03729500      -0.74017400       0.00852827       1.92755575      -0.67671609
Fe       0.04226000       2.91249000       8.09734000      -3.39897200      -2.84207300      -2.69442200      -2.77644114      -3.00828204      -2.45325230
Fe       1.33282000       7.09057000       5.22634000      -0.45239700      -1.35392500       0.92503500      -0.23427022      -1.46447668       0.94496632
Fe       2.06045000       7.92051000       0.98063000      -3.11321000      -0.30108300      -2.49280600      -3.28225872      -0.43627786      -2.49270555
Fe       2.03627000       8.24295000       3.50701000      -1.42216600       4.38122900       0.88517600      -1.53149240       4.10175727       0.63060253
Fe       0.01253000       8.02686000       7.00667000       2.58679700       0.98610200     -11.80201700       2.47622982       0.87141072     -11.98517227
Fe       3.00353000       0.57289000       6.13981000      -1.03922300       0.18357300       0.93137300      -0.77556560       0.14933242       0.98216317
Fe       3.69949000       2.65196000       7.51811000       2.76433000      -4.34399200      -3.80269000       2.60462459      -4.13130413      -3.68613690
Fe       2.94478000       6.44154000       3.03987000       7.21319500      -3.66655800      -1.17614100       6.99292308      -3.45199197      -0.98729518
Fe       2.94309000       5.75189000       6.64956000      -6.24071800      -0.74678300       3.86021800      -6.43267499      -0.64540885       4.01698156
Fe       3.71160000       8.39321000       1.86324000       2.24845700      -0.43546600       0.28887200       2.37587961      -0.07759830       0.68106991
Fe       4.07810000       8.43915000       4.32840000       2.88035800       1.28304800      -0.49181300       2.84865511       1.30731439      -0.79521809
Fe       5.57499000       0.73262000       6.31633000      -3.12774100      -1.68249800      -0.98058200      -2.77791972      -1.74320296      -0.92673052
Fe       4.70712000       1.94493000       1.65492000      -2.04675700       4.97917500      -3.67899600      -2.11810307       4.77175008      -3.42478483
Fe       4.73401000       4.18392000       1.24748000       0.71501700       1.80608500      -0.06999200       0.71140167       1.96700111      -0.13513329
Fe       4.56687000       4.22266000       4.39618000       0.73801700       3.32591500      -2.10569900       0.50487200       3.16948506      -2.13154846
Fe       4.51224000       4.61167000       7.05684000       2.53211900      -0.41024200       0.53825400       2.95780770      -0.71993566       0.48364749
Fe       6.32808000       6.81945000       4.24288000      -3.20445400      -0.33519400      -1.28892300      -2.80869245      -0.23369572      -1.07419296
Fe       6.22240000       7.17309000       0.16230000      -3.30904600      -2.75215800       1.90373500      -3.48494848      -2.95983909       2.03096819
Fe       4.54224000       7.44382000       7.03838000       0.17895600      -5.02037800      -8.74618400       0.31908728      -5.28917129      -8.86914909
Fe       4.73272000       8.55832000       8.35561000      -0.10588400       8.96287400       6.54083400      -0.34357808       9.33101970       6.18957859
Fe       7.67285000       2.82429000       2.17742000      -2.12886900      -0.76272600      -2.06587500      -2.13637445      -0.81914512      -1.96895163
Fe       6.74071000       1.77406000       4.33655000       0.47479500       0.50025500      -0.42349800       0.07241135       0.40577708      -0.44247949
Fe       7.16362000       1.61896000       6.68131000       5.11373900       1.83737400       0.70818800       4.68676716       1.60853448       0.62731470
Fe       6.73653000       4.13840000       7.84564000       0.19062300       0.32905600       3.59274800       0.17467643       0.46754039       3.60380127
Fe       6.61248000       5.35948000       2.44590000       0.96755600      -0.77403900      -0.47053600       0.85834714      -0.66945254      -0.43308545
Fe       8.39074000       4.95678000       4.82580000       0.50677700       3.21370700       1.22596300       0.56829115       3.15250104       1.08477891
Fe       6.62275000       6.29700000       6.29237000       0.91106900      -0.58785400       1.74696000       0.82910447      -0.49201995       1.60674913
Fe       8.00875000       8.14674000       2.12563000      -1.25903800      -1.94608200      -3.37077000      -0.86259477      -1.89645769      -3.43469783
Fe       7.96861000       8.10559000       4.08816000       1.24434400       0.03207600       4.40361200       0.72992652       0.04712571       4.57512119
B        3.14587000       1.61638000       2.59818000      -3.96044800      -1.57388800      -2.24367700      -3.98660471      -1.48061893      -2.01509970
B        4.07212000       1.93087000       3.78701000       0.55534200       0.12762300      -3.25123200       0.37280355       0.15986257      -3.22933246
B        2.24412000       1.90783000       4.05913000      -1.80380000      -9.70850100      -5.48536600      -1.88616821     -10.04852712      -5.62835377
B        2.90130000       3.06657000       4.45062000       2.48509300       7.60479000      -1.50334300       2.84017201       7.24980221      -1.50786715
B        2.82587000       3.80138000       5.80651000       0.21675600       2.27927400       3.92227300       0.26504732       2.19573278       3.94689935
B        2.60929000       5.04297000       1.66311000       0.12617300      -0.77075900      -0.46531300      -0.02149180      -0.83700348      -0.46062294
B        2.47198000       4.95014000       4.32601000      -0.76752800      -1.31946700       0.35153300      -0.79749071      -1.21538163       0.43684946
B        2.73354000       7.81887000       7.66829000      -1.47869400      -0.15377200       0.00458000      -1.53553327      -0.16875628       0.22424915
B        5.68071000       2.28134000       7.79544000      -0.95924500       0.41857400       1.11780500      -0.97167699       0.39212934       1.08143304
B        7.77536000       3.70665000       3.76574000      -0.44877700      -1.48394500      -0.38974400      -0.53866807      -1.41672068      -0.08602345
Si       0.79518000       0.92195000       5.77957000      -1.66645900      -4.94136200      -1.10925300      -1.62088939      -4.99549414      -0.96884109
Si       0.88055000       4.20706000       6.73551000       1.15626000       3.58432200      -0.32349000       1.10895827       3.67263433      -0.22144338
Si       1.15025000       6.44729000       2.43826000      -7.77651300      -1.83655100      -1.54918700      -7.80383542      -1.72173078      -1.70117876
Si       2.82820000       3.29548000       0.50208000      -4.05499500       1.58525200       5.32597100      -4.05881055       1.38660645       5.24627037
Si       4.14031000       6.38272000       0.30005000      -2.16949800      -2.44928300       2.57761000      -2.32077817      -2.39199601       2.46062347
Si       3.68345000       6.43010000       5.01209000       3.98893100       0.98565200      -2.13453700       3.86096713       1.16703690      -2.17045220
Si       5.73751000       0.59059000       2.53265000       5.08228400      -4.90021500       2.23852200       5.10339158      -4.85049489       2.50234522
Si       4.51163000       2.47994000       5.36819000       2.60737700      -2.86786400       7.12589500       2.80608344      -2.58613123       7.09311360
Si       6.43436000       3.75222000       5.86206000       1.38008400       0.66155200      -3.64612400       1.49437555       0.71636338      -3.74135035
Si       8.06432000       7.52318000       8.55473000       2.36409700      -3.06603600      11.34847700       2.69786265      -2.77218473      11.23774451
18
Lattice="6.5 0.0 0.0 0.0 6.5 0.0 0.0 0.0 6.5" Properties=species:S:1:pos:R:3:REF_forces:R:3:MACE_forces:R:3 config_type=Fe12B3Si3 REF_energy=-113.87843945 MACE_energy=-113.06250572159334 pbc="T T T"
Fe       5.40234000       5.43492000       1.53729000      -1.39532100       2.04028400       0.71142300      -1.01076483       1.82157415       0.69749461
Fe       2.09750000       2.10361000       0.54730000       2.35673700      -0.33103000       1.27254800       2.56111312      -0.11662208       1.36145825
Fe       2.84360000       1.73250000       3.81271000       2.28004000      -1.18251600      -0.27344700       2.24191840      -0.99252507      -0.20756866
Fe       0.77541000       4.93717000       1.04317000       1.56096300      -3.83372900       1.76362000       1.22183212      -3.38230823       1.60585297
Fe       0.07665000       3.70431000       3.74351000      -0.75952900      -0.39175400      -2.23189700      -1.21121475      -0.47831291      -2.25142320
Fe       4.77171000       3.58949000       4.78220000      -1.99219600      -4.62409700       0.48420500      -1.62746284      -4.51858028       0.37775082
Fe       4.12430000       1.49867000       1.46476000       0.29771700      -2.38794700       0.28396300       0.25445573      -2.66824604       0.11097238
Fe       0.95387000       5.17746000       5.28728000      -0.57085000      -0.50160400      -1.80733600      -0.93765378      -0.65954564      -1.37212765
Fe       1.93602000       3.09888000       2.36598000      -0.08855100       0.43128300      -0.27209000      -0.21853264       0.47400367      -0.64609571
Fe       5.69037000       1.28357000       4.20026000      -0.40866000      -0.49067900       0.18976600      -0.84471280      -0.32180625       0.22825542
Fe       1.94321000       2.86141000       5.39871000      -0.55906500       0.73218900      -1.80086600      -0.45426035       0.67201152      -1.94531141
Fe       4.33122000       5.38124000       5.25469000      -0.73272900       4.56545400       1.52017900      -0.54714266       4.36092319       1.57136908
B        0.37598000       1.64060000       1.21420000      -3.21263000       2.85095800       0.76078000      -2.97418838       2.69951927       0.81517024
B        1.88110000       4.04794000       3.96741000       2.48956600       2.45119300      -0.32261600       2.66667992       2.43426382      -0.27055840
B        3.63878000       0.94242000       5.41981000      -0.01444500       0.67937600       0.95779200       0.11990372       0.80942130       1.09274454
Si       1.19380000       0.26963000       0.19686000       0.54051800       0.24528300      -1.93219100       0.62856124       0.01380221      -1.82403585
Si       4.57825000       3.47658000       1.16117000       0.15934200       1.26766700      -0.81102600       0.18234041       1.51642723      -0.80533439
Si       1.09558000       0.76720000       2.75124000       0.04909300      -1.52033200       1.50719200      -0.05087162      -1.66399985       1.46138697
54
Lattice="8.579999685 0.0 0.0 0.0 8.579999685 0.0 0.0 0.0 8.5799996" Properties=species:S:1:pos:R:3:REF_forces:R:3:MACE_forces:R:3 config_type=Fe34B10Si10 REF_energy=-356.0869274 MACE_energy=-356.9481409681121 pbc="T T T"
Fe       0.92877000       1.08311000       2.12831000      -0.53214900      -1.15432400       0.53007800      -0.72778036      -1.18796714       0.39648602
Fe       1.12794000       0.45096000       7.37327000      -2.86345100       2.18226700       1.45805300      -2.82100462       1.96990818       1.43372598
Fe       0.91289000       3.61082000       1.96264000      -1.66570100       0.50807500      -4.76654600      -1.72693740       0.37759258      -4.80882196
Fe       0.97242000       3.25012000       3.83975000      -0.85629000      -1.23507100      -0.91491200      -1.10012847      -1.24925688      -0.16524319
Fe       1.43574000       3.84332000       5.84621000      -1.94378300      -0.72872400       4.94145300      -2.07936440      -0.63988068       4.73478248
Fe       0.45897000       5.99881000       1.32384000       1.86679900       1.45939200      -0.33976700       1.63475920       1.51632905      -0.17413419
Fe       0.05714000       6.25044000       6.01250000       0.66851500      -0.88142700       1.67028200       0.68471540      -0.76895856       1.70408858
Fe       1.87526000       7.05991000       7.27744000      -5.90957000       6.81146600       5.95768600      -5.73921793       7.23953030       6.00008012
Fe       4.21220000       0.80536000       3.81626000       0.44958900      -1.97725700       0.54591300       0.47393070      -1.88773783       0.41678476
Fe       2.64196000       0.75311000       5.88605000       0.80305000      -0.92688600      -1.50973400       0.50796597      -1.03172616      -1.55160578
Fe       2.51735000       4.27963000       7.86001000      -0.17185400       2.88247300       0.00075600      -0.00333748       2.93594445       0.16322800
Fe       2.46175000       4.76211000       4.38544000       2.27245000       6.36429500      -0.60000700       2.18862929       6.36085449      -0.73225615
Fe       3.99132000       4.46692000       6.09268000      -0.21521200      -1.96607600      -0.25853400      -0.17016945      -2.27932754      -0.20355452
Fe       4.03283000       6.20484000       2.50717000       0.32509400      -1.83048700       1.07686200       0.41378490      -1.76599882       1.06626306
Fe       2.62183000       8.12097000       1.25125000      -5.45108600      -1.04608100      -0.88869000      -5.50719166      -1.13584408      -0.64954797
Fe       2.34208000       7.49949000       3.33705000      -1.45221900       0.10179900       1.96325000      -1.26302699       0.17670127       1.64552179
Fe       4.67554000       0.98699000       8.35162000       1.97529500       0.95938300       0.07305200       1.65930600       0.86873529       0.30525264
Fe       4.68615000       2.28426000       1.60336000       6.03713100       4.39249100       1.56082500       6.25048461       4.32208043       1.14759452
Fe       4.95897000       4.28949000       0.91503000       1.24258400       3.77490300      -1.07876200       0.81961352       3.57683771      -1.24089496
Fe       5.62605000       3.84953000       3.25301000      -4.56775200       3.43217100       2.09526400      -4.53450764       3.55470206       1.89812663
Fe       5.63153000       5.70233000       4.67966000       0.04558900       0.36352900      -0.74034800       0.01573497      -0.04763213      -0.59233675
Fe       5.00954000       6.14620000       6.89198000       4.51113600      -2.60361300       1.43664400       4.57785297      -2.37463286       1.44043179
Fe       5.34723000       7.32984000       0.56425000       3.41130600      -7.55812200      -7.44238600       3.50067186      -7.03106139      -7.25509853
Fe       4.57141000       8.20633000       1.67615000      -2.51651100       6.57056000       9.11650700      -2.69761278       6.05346752       8.71629979
Fe       5.67084000       7.83697000       6.02451000      -0.02983000       3.57151200       0.33120700      -0.03509824       3.60701029       0.33527601
Fe       7.65837000       1.05332000       0.64336000       1.95813700       2.93603900      -3.62028800       1.88495626       2.91365636      -3.55886037
Fe       7.23579000       1.49494000       3.62009000       0.88838800      -1.50203300       3.00240400       0.94050762      -1.48532357       3.08465504
Fe       6.96409000       1.59543000       6.70415000       0.40175100      -2.57633900      -0.54943900       0.52448901      -2.54330984      -0.58409637
Fe       6.97946000       3.05325000       2.27831000       3.01329100      -2.85779700      -7.80747400       2.46782838      -2.95457143      -7.28339356
Fe       7.05854000       3.62734000       7.13255000       0.94483300       2.42104600       2.56329500       1.03969048       2.48691929       2.50809828
Fe       7.47490000       4.49325000       0.92243000      -3.13561000       0.06366500       0.11142200      -2.88498821       0.48409609      -0.17640614
Fe       7.76499000       5.40883000       4.05655000       3.42051700      -2.49950500       1.10150300       3.48883570      -2.64683303       1.12064414
Fe       6.91686000       6.16423000       2.38917000      -4.34160700       0.52717700      -3.24358900      -4.32042570       0.57179906      -3.20817643
Fe       7.31773000       7.39473000       4.73130000      -1.41907300       3.06948200       1.38572900      -1.48224253       2.99264680       1.41054002
B        1.63947000       5.44017000       2.85377000      -1.37965300       1.67099600      -0.34434500      -1.51293007       1.78126111      -0.57813529
B        3.47444000       1.29905000       1.69513000      -6.04542900      -7.46227000      -1.52467000      -5.89487621      -7.13740313      -1.08816748
B        2.31673000       1.42955000       3.77944000      -1.85652800      -2.14982900       3.21956500      -1.69497819      -1.98667213       3.42911001
B        3.17088000       0.01260000       8.16689000      -2.14308300      -0.12737100      -3.63430700      -1.98947326       0.11377779      -3.57867728
B        2.48887000       2.23189000       2.44876000      -1.30373000       3.96631200      -0.94871100      -0.89866476       3.82324647      -1.29456060
B        3.55016000       3.21990000       0.17024000       2.13469500      -3.52588700       0.23974700       2.13692312      -3.42325002       0.30836883
B        3.12966000       3.07291000       4.24572000      -6.99085300       0.34377600      -0.16579100      -7.08789038       0.14541397      -0.16439757
B        2.38358000       5.95301000       6.34325000       2.25901800      -8.76611800      -6.31465800       2.15839803      -9.25097746      -6.58406325
B        4.46260000       2.62992000       4.23823000       7.08507900      -1.75449200       0.40993300       7.17966083      -1.87344913       0.45580340
B        7.51183000       3.59374000       3.85724000       1.49621300      -1.20378300       3.39561400       1.55177284      -1.07253909       3.22140683
Si       0.50050000       1.66927000       5.10425000      -1.02554400      -2.67263500       2.61432900      -0.78778712      -2.91529941       2.63633012
Si       0.41923000       4.50138000       8.15701000       0.82744200      -0.47721100      -2.57541600       1.06916050      -0.40079699      -2.86741627
Si       2.90131000       4.25049000       1.93860000       2.71957100       0.04497600      -0.88170100       2.89501692      -0.01177883      -1.08067647
Si       3.74353000       6.85388000       5.19884000      -1.20766000       1.80214700      -2.20114300      -1.06493775       2.07392266      -2.13197516
Si       3.54209000       6.47938000       8.21357000      -0.45014500      -1.75854100       4.24377300      -0.53862920      -2.00983642       4.43245781
Si       4.55252000       1.74669000       6.40118000       0.28733400       0.20348600      -1.69136000       0.23263698       0.12423625      -1.61598170
Si       5.87020000       3.30923000       5.41310000       1.93974000       0.55942400      -1.14043100       1.56764161       0.79789724      -1.07408527
Si       6.68392000       0.09389000       2.07850000      -2.78148600      -1.30329400       2.70552900      -2.44513471      -1.23655068       2.80603169
Si       7.30980000       7.36953000       0.08595000       4.18267400      -0.22507900      -1.67891000       4.11431285      -0.50315069      -1.67861573
Si       8.41387000       7.50606000       2.97540000       5.08859000       1.78741200      -0.88875800       5.02905500       1.98319921      -0.89620942
54
Lattice="8.579999685 0.0 0.0 0.0 8.579999685 0.0 0.0 0.0 8.5799996" Properties=species:S:1:pos:R:3:REF_forces:R:3:MACE_forces:R:3 config_type=Fe34B10Si10 REF_energy=-359.84864784 MACE_energy=-360.2290394303949 pbc="T T T"
Fe       0.39531000       2.37288000       0.87042000       3.27925500       2.43832800      -1.60261100       3.21001462       2.70140096      -1.75871991
Fe       0.75383000       1.65209000       3.11094000       1.30783500      -0.34615400      -0.09267000       1.28455353      -0.87625615       0.11439998
Fe       1.33201000       3.79282000       7.26231000      -2.40668100      -1.18131200       0.32245500      -2.59153311      -1.11345544       0.26919609
Fe       0.64436000       4.41396000       2.97573000       2.42004200      -2.26182600       0.38963900       2.49432471      -2.08742505       0.30982004
Fe       0.14751000       6.42079000       3.51005000      -3.07002100       1.32407200      -2.30638400      -3.07568346       1.28905984      -2.40407478