54
Lattice="8.579999685 0.0 0.0 0.0 8.579999685 0.0 0.0 0.0 8.5799996" Properties=species:S:1:pos:R:3:REF_forces:R:3:MACE_forces:R:3 config_type=Fe34B10Si10 REF_energy=-352.89092233 MACE_energy=-353.32625007674886 pbc="T T T"
Fe       1.46495000       0.71583000       1.12880000       3.73230100      -3.41607500      -3.76209700       3.68874742      -3.50378136      -3.54580813
Fe       0.56244000       2.07917000       1.96452000      -3.31290700       4.06628900       2.54508600      -3.22693029       3.96260985       2.34081202
Fe       0.86636000       2.12990000       5.00906000     -10.85567700      -2.87102900      12.20968700     -10.93858683      -2.95720324      12.21699104
Fe       0.24697000       2.61233000       7.83061000      -0.37811800      -2.03816900      -0.08744800      -0.41956585      -1.90259030       0.08245955
Fe       0.35437000       4.66395000       8.16447000      -1.30300600       1.62250000       0.84662400      -1.32858108       1.61231550       0.77477019
Fe       0.83543000       8.00840000       3.01492000       5.54921000      -2.55787300       0.52513800       5.70638349      -2.53192521       0.38937580
Fe       2.03952000       7.84431000       6.63062000      -4.28706100       1.82495200      -1.68802900      -4.07444828       1.96619609      -1.63612150
Fe       3.34318000       0.11090000       2.96052000      -0.46571400      -0.35056300       0.37864800      -0.51761787      -0.22199026       0.47511652
Fe       3.26317000       2.11539000       1.48699000      -3.47884800      -0.03222100       0.61542300      -3.41827121      -0.30552259       0.16458523
Fe       4.14313000       2.75755000       3.31065000      -0.71378000      -2.73118300       1.93004800      -0.61720135      -2.41262507       1.86292736
Fe       2.55051000       2.67374000       7.19710000      -2.55215900      -0.93589000       1.77261600      -2.30227048      -1.14130636       1.71957055
Fe       3.61327000       2.86500000       5.46497000       1.55763200       0.20514300      -0.56676300       1.46826117       0.27866688      -0.28497469
Fe       2.62400000       4.72550000       1.39174000      -1.08585200      -1.19598700       0.59645400      -1.35159207      -1.00622922       0.69645457
Fe       2.20317000       5.21693000       3.87451000      -3.92870900      -4.38103900      -4.92199500      -3.85682808      -4.38445400      -4.97106886
Fe       3.93082000       4.37819000       8.08226000       1.07616800       0.44807800      -0.99700400       1.02760517       0.30315823      -0.92337980
Fe       2.44961000       7.01753000       1.08943000       0.32119000      -1.55635000       3.27006500       0.44148673      -1.63071387       3.26254112
Fe       3.02500000       6.15780000       5.08193000      -1.08486800       1.64126100       3.95415400      -0.63700456       1.63656664       4.03923049
Fe       5.77712000       0.44616000       0.16142000      -2.43333700       0.07175000       4.13474700      -2.47501357       0.40984919       4.22178497
Fe       5.66964000       0.14892000       2.95259000      -3.67617900       1.90971100       0.12919700      -3.65542206       1.65368362       0.32025267
Fe       5.39484000       2.66317000       1.55162000       4.08183700      -3.39937100       3.88213200       4.03318151      -3.64828413       4.03657730
Fe       5.91309000       3.40423000       8.31953000       8.90196200       5.48305700      -2.72562400       8.71891847       5.45834807      -2.71525444
Fe       4.96126000       4.63305000       3.41410000      -3.60269200      -2.00302700       2.25051900      -3.72824557      -2.22099878       2.38252682
Fe       5.11347000       6.81217000       1.78872000      -0.87770500       0.06714300      -1.61156800      -0.70352926       0.07201279      -1.57262901
Fe       5.00950000       6.45991000       8.24507000      -2.30619500      -0.19808200      -1.52355700      -2.28458556       0.01382518      -1.66930542
Fe       4.64263000       7.71190000       5.75084000       2.50156800       4.23919200      -1.55456800       2.61016169       4.26914500      -1.59007008
Fe       7.32285000       0.33022000       5.03535000      -0.99210900      -0.59745100       4.73628300      -1.02572938      -0.38252652       4.80932677
Fe       6.75330000       1.32958000       7.05071000       0.53851300       2.01290400       0.36400700       0.56211896       1.82608540       0.28632893
Fe       6.82686000       2.53028000       3.66692000      -0.08907100      -0.12987400      -0.26318300      -0.06156940      -0.21147174      -0.24911006
Fe       6.83617000       5.56618000       0.59386000       1.74434500       1.47371700      -3.32847200       1.81145870       1.63042142      -3.41205377
Fe       8.27091000       4.29855000       2.87718000       3.23308900       0.33980500       1.37352500       3.20772693       0.22492590       1.32648726
Fe       6.58774000       4.90718000       4.97515000      -1.87594500       0.58060600      -0.05143700      -2.12808390       0.61598632      -0.29082063
Fe       6.86773000       6.79187000       3.27473000       1.52763600      -2.76254700       0.67579100       1.39771648      -2.41628199       0.39654891
Fe       8.09083000       8.29691000       0.84396000      -4.18921500      -1.95965200       9.56442300      -4.19782125      -2.33264705       9.67673561
Fe       6.62133000       7.67903000       7.47205000      -3.65417600       1.51975600      -3.32990400      -3.88920887       1.22654218      -3.51916557
B        3.45077000       6.81738000       6.75435000       2.04131500      -2.79808300       3.80923700       1.90882188      -2.70194128       3.94026909
B        4.67436000       1.10514000       4.73414000       0.75036200       0.95391600      -0.52852700       0.82606803       0.87398701      -0.46654347
B        6.18153000       2.20088000       5.47737000      -4.49435700      -3.20609500      -2.27763700      -4.71226068      -3.15098824      -2.47408933
B        5.08133000       4.10197000       6.35983000       0.35152900       0.25548900      -0.65354500       0.57946604       0.33494805      -0.63575850
B        4.48663000       4.29393000       1.40792000      -0.27448100       1.04603100       0.21283300      -0.26676333       1.21788820       0.15594333
B        4.96286000       5.88068000       6.14703000       0.60492000      -1.85032800       0.29314600       0.63396144      -1.92445352       0.12438866
B        8.17242000       5.65216000       5.55863000       1.00443800       0.65677900      -0.69824300       1.02632757       0.73844902      -0.33781015
B        7.98743000       6.92663000       6.60530000       5.86774900       2.58695800      -4.05103700       5.84501257       2.50165275      -3.73987310
B        7.10769000       5.72812000       6.91109000      -2.33709700      -3.34606800       1.34633400      -2.33263969      -3.51117039       1.29454574
B        7.81665000       6.81498000       8.33858000       5.04350100      -2.41043400       0.97359300       5.17113841      -2.41176318       0.75636268
Si       0.06983000       0.14925000       7.74742000       4.12649000       2.60901100      -8.87608100       3.95777055       2.64276678      -8.87038860
Si       1.93337000       2.41223000       3.74634000      10.14534600       2.98113100     -12.18526000      10.23273739       3.11136195     -12.01290885
Si       0.75978000       6.02813000       1.69309000      -4.13401100      -0.74920300       1.02787300      -4.12824613      -0.86538246       1.03178434
Si       2.22023000       5.10313000       7.16329000      -1.58663400       1.19675500      -1.89967800      -1.78278386       1.16508679      -1.93331445
Si       3.27754000       8.17117000       8.35443000       4.04667900       4.58101600      -2.24829100       3.90837351       4.54278561      -2.46709288
Si       4.48145000       2.18337000       8.34202000      -5.72220500      -5.96162700      -4.99603400      -5.48821802      -5.82388754      -5.14290448
Si       6.36439000       4.54151000       2.12641000       2.28764700      -2.33178900       1.39384200       2.59689707      -2.23921053       1.26787774
Si       4.52267000       6.51460000       3.75633000       0.42177200       5.22743800       1.25328700       0.14623530       5.38112374       1.40028091
Si       7.68278000       0.22257000       3.11016000      -0.17295300       4.89916800      -3.86478000      -0.30578543       4.77414885      -3.98492810
Si       7.35363000       3.38410000       6.13231000       4.40786200       1.27045000       2.62604800       4.34822742       1.39481181       2.99251773
54
Lattice="8.579999685 0.0 0.0 0.0 8.579999685 0.0 0.0 0.0 8.5799996" Properties=species:S:1:pos:R:3:REF_forces:R:3:MACE_forces:R:3 config_type=Fe34B10Si10 REF_energy=-354.71875992 MACE_energy=-355.38179322279757 pbc="T T T"
Fe       0.43313000       1.19321000       2.96848000       1.47291300       2.99028000       0.61180900       1.62064507       2.98511612       0.31944133
Fe       0.91365000       1.12516000       8.09995000       2.76260400      -2.00335600       1.20968300       2.57207281      -2.14652359       1.11375205
Fe       1.17142000       2.67870000       5.23446000      -1.90323000       6.04651700       0.58026800      -1.69128788       6.29424516       0.61295787
Fe       0.60772000       3.85484000       0.87278000       2.66909500       4.89444800       4.53699300       2.65700696       5.11079891       4.26046371
Fe       1.41565000       3.44858000       3.01161000      -0.29549500       2.03729500      -0.74017400      -0.27945354       1.93598620      -0.67189211
Fe       0.04226000       2.91249000       8.09734000      -3.39897200      -2.84207300      -2.69442200      -3.09179967      -2.75410329      -2.49500200
Fe       1.33282000       7.09057000       5.22634000      -0.45239700      -1.35392500       0.92503500      -0.21737406      -1.49828312       0.81497835
Fe       2.06045000       7.92051000       0.98063000      -3.11321000      -0.30108300      -2.49280600      -3.23758439      -0.53858504      -2.33310767
Fe       2.03627000       8.24295000       3.50701000      -1.42216600       4.38122900       0.88517600      -1.53878987       4.19777913       0.55859914
Fe       0.01253000       8.02686000       7.00667000       2.58679700       0.98610200     -11.80201700       2.51056714       0.82577926     -11.91654168
Fe       3.00353000       0.57289000       6.13981000      -1.03922300       0.18357300       0.93137300      -0.71479763      -0.02182213       1.08481911
Fe       3.69949000       2.65196000       7.51811000       2.76433000      -4.34399200      -3.80269000       2.56912168      -4.14790747      -3.67455983
Fe       2.94478000       6.44154000       3.03987000       7.21319500      -3.66655800      -1.17614100       7.12739001      -3.38418442      -0.92899532
Fe       2.94309000       5.75189000       6.64956000      -6.24071800      -0.74678300       3.86021800      -6.59298982      -0.75725748       3.88607136
Fe       3.71160000       8.39321000       1.86324000       2.24845700      -0.43546600       0.28887200       2.36520800      -0.25597792       0.52955856
Fe       4.07810000       8.43915000       4.32840000       2.88035800       1.28304800      -0.49181300       2.94198571       1.48424891      -0.80467048
Fe       5.57499000       0.73262000       6.31633000      -3.12774100      -1.68249800      -0.98058200      -2.97398459      -1.73147697      -1.03643893
Fe       4.70712000       1.94493000       1.65492000      -2.04675700       4.97917500      -3.67899600      -2.14120563       4.83400987      -3.40302577
Fe       4.73401000       4.18392000       1.24748000       0.71501700       1.80608500      -0.06999200       0.71053451       1.99900454      -0.15030868
Fe       4.56687000       4.22266000       4.39618000       0.73801700       3.32591500      -2.10569900       0.60532167       3.49648188      -2.30671335
Fe       4.51224000       4.61167000       7.05684000       2.53211900      -0.41024200       0.53825400       2.99250710      -0.69199059       0.64654410
Fe       6.32808000       6.81945000       4.24288000      -3.20445400      -0.33519400      -1.28892300      -2.85495138      -0.29924022      -1.08463345
Fe       6.22240000       7.17309000       0.16230000      -3.30904600      -2.75215800       1.90373500      -3.54420370      -2.98126229       1.93299873
Fe       4.54224000       7.44382000       7.03838000       0.17895600      -5.02037800      -8.74618400       0.15432709      -5.32258168      -8.86159319
Fe       4.73272000       8.55832000       8.35561000      -0.10588400       8.96287400       6.54083400      -0.24823014       9.46314431       6.40635666
Fe       7.67285000       2.82429000       2.17742000      -2.12886900      -0.76272600      -2.06587500      -2.11956925      -0.70073625      -1.91916937
Fe       6.74071000       1.77406000       4.33655000       0.47479500       0.50025500      -0.42349800       0.13389041       0.52702670      -0.55680879
Fe       7.16362000       1.61896000       6.68131000       5.11373900       1.83737400       0.70818800       4.94930038       1.65524127       0.64183860
Fe       6.73653000       4.13840000       7.84564000       0.19062300       0.32905600       3.59274800       0.35310485       0.46344189       3.68762987
Fe       6.61248000       5.35948000       2.44590000       0.96755600      -0.77403900      -0.47053600       0.90865051      -0.76391756      -0.38896948
Fe       8.39074000       4.95678000       4.82580000       0.50677700       3.21370700       1.22596300       0.55187632       3.13970933       1.08292467
Fe       6.62275000       6.29700000       6.29237000       0.91106900      -0.58785400       1.74696000       0.85191601      -0.46554920       1.52412929
Fe       8.00875000       8.14674000       2.12563000      -1.25903800      -1.94608200      -3.37077000      -0.86822967      -1.96440299      -3.53915176
Fe       7.96861000       8.10559000       4.08816000       1.24434400       0.03207600       4.40361200       0.67872388      -0.04203464       4.63605684
B        3.14587000       1.61638000       2.59818000      -3.96044800      -1.57388800      -2.24367700      -4.10234595      -1.54995021      -2.21284393
B        4.07212000       1.93087000       3.78701000       0.55534200       0.12762300      -3.25123200       0.40052771      -0.03736145      -3.37388895
B        2.24412000       1.90783000       4.05913000      -1.80380000      -9.70850100      -5.48536600      -1.84293010      -9.88879398      -5.58422238
B        2.90130000       3.06657000       4.45062000       2.48509300       7.60479000      -1.50334300       2.78375135       7.09084577      -1.37187892
B        2.82587000       3.80138000       5.80651000       0.21675600       2.27927400       3.92227300       0.26966011       2.13629872       3.96192427
B        2.60929000       5.04297000       1.66311000       0.12617300      -0.77075900      -0.46531300      -0.03555692      -0.94750704      -0.47090580
B        2.47198000       4.95014000       4.32601000      -0.76752800      -1.31946700       0.35153300      -0.91539925      -1.13160316       0.34215135
B        2.73354000       7.81887000       7.66829000      -1.47869400      -0.15377200       0.00458000      -1.41905186      -0.13117518       0.09934248
B        5.68071000       2.28134000       7.79544000      -0.95924500       0.41857400       1.11780500      -1.05313271       0.37107394       1.11634870
B        7.77536000       3.70665000       3.76574000      -0.44877700      -1.48394500      -0.38974400      -0.49161439      -1.38178956      -0.18648009
Si       0.79518000       0.92195000       5.77957000      -1.66645900      -4.94136200      -1.10925300      -1.65106313      -5.08311498      -0.92053071
Si       0.88055000       4.20706000       6.73551000       1.15626000       3.58432200      -0.32349000       1.13875493       3.70109822      -0.28962563
Si       1.15025000       6.44729000       2.43826000      -7.77651300      -1.83655100      -1.54918700      -7.83822317      -1.66147088      -1.75296277
Si       2.82820000       3.29548000       0.50208000      -4.05499500       1.58525200       5.32597100      -4.13410203       1.39232054       5.17030168
Si       4.14031000       6.38272000       0.30005000      -2.16949800      -2.44928300       2.57761000      -2.30884390      -2.37373857       2.44510658
Si       3.68345000       6.43010000       5.01209000       3.98893100       0.98565200      -2.13453700       3.92244987       1.20233097      -2.03758556
Si       5.73751000       0.59059000       2.53265000       5.08228400      -4.90021500       2.23852200       5.19800315      -4.99951980       2.53437671
Si       4.51163000       2.47994000       5.36819000       2.60737700      -2.86786400       7.12589500       2.72933871      -2.59463084       7.29876257
Si       6.43436000       3.75222000       5.86206000       1.38008400       0.66155200      -3.64612400       1.50034954       0.68225851      -3.78523114
Si       8.06432000       7.52318000       8.55473000       2.36409700      -3.06603600      11.34847700       2.70972915      -2.73974764      11.35030316
18
Lattice="6.5 0.0 0.0 0.0 6.5 0.0 0.0 0.0 6.5" Properties=species:S:1:pos:R:3:REF_forces:R:3:MACE_forces:R:3 config_type=Fe12B3Si3 REF_energy=-113.87843945 MACE_energy=-112.45157575453035 pbc="T T T"
Fe       5.40234000       5.43492000       1.53729000      -1.39532100       2.04028400       0.71142300      -1.16554634       2.05487323       0.78850487
Fe       2.09750000       2.10361000       0.54730000       2.35673700      -0.33103000       1.27254800       2.71765203      -0.25799027       1.37490631
Fe       2.84360000       1.73250000       3.81271000       2.28004000      -1.18251600      -0.27344700       2.25724419      -1.07557494      -0.32670882
Fe       0.77541000       4.93717000       1.04317000       1.56096300      -3.83372900       1.76362000       1.54799545      -3.66251565       1.57651394
Fe       0.07665000       3.70431000       3.74351000      -0.75952900      -0.39175400      -2.23189700      -0.86641457      -0.47032307      -2.35645706
Fe       4.77171000       3.58949000       4.78220000      -1.99219600      -4.62409700       0.48420500      -1.80649397      -4.54284677       0.44477079
Fe       4.12430000       1.49867000       1.46476000       0.29771700      -2.38794700       0.28396300       0.35407396      -2.68769222       0.15342059
Fe       0.95387000       5.17746000       5.28728000      -0.57085000      -0.50160400      -1.80733600      -0.82792807      -0.68804547      -1.38293652
Fe       1.93602000       3.09888000       2.36598000      -0.08855100       0.43128300      -0.27209000      -0.23492543       0.57894402      -0.36921612
Fe       5.69037000       1.28357000       4.20026000      -0.40866000      -0.49067900       0.18976600      -0.69048701      -0.36570876       0.24505057
Fe       1.94321000       2.86141000       5.39871000      -0.55906500       0.73218900      -1.80086600      -0.68724727       1.13442188      -2.20378249
Fe       4.33122000       5.38124000       5.25469000      -0.73272900       4.56545400       1.52017900      -0.62716663       4.48839110       1.59838113
B        0.37598000       1.64060000       1.21420000      -3.21263000       2.85095800       0.76078000      -3.19537996       2.75650082       1.03019719
B        1.88110000       4.04794000       3.96741000       2.48956600       2.45119300      -0.32261600       2.51691711       2.24884132      -0.28029301
B        3.63878000       0.94242000       5.41981000      -0.01444500       0.67937600       0.95779200       0.02956978       0.77653142       1.08364180
Si       1.19380000       0.26963000       0.19686000       0.54051800       0.24528300      -1.93219100       0.60258543      -0.00399207      -1.88770990
Si       4.57825000       3.47658000       1.16117000       0.15934200       1.26766700      -0.81102600       0.20208097       1.35125310      -0.75852470
Si       1.09558000       0.76720000       2.75124000       0.04909300      -1.52033200       1.50719200      -0.12652969      -1.63506768       1.27024141
54
Lattice="8.579999685 0.0 0.0 0.0 8.579999685 0.0 0.0 0.0 8.5799996" Properties=species:S:1:pos:R:3:REF_forces:R:3:MACE_forces:R:3 config_type=Fe34B10Si10 REF_energy=-356.0869274 MACE_energy=-357.12097163315315 pbc="T T T"
Fe       0.92877000       1.08311000       2.12831000      -0.53214900      -1.15432400       0.53007800      -0.62079471      -1.16427871       0.46369800
Fe       1.12794000       0.45096000       7.37327000      -2.86345100       2.18226700       1.45805300      -2.73209735       2.07201378       1.41216735
Fe       0.91289000       3.61082000       1.96264000      -1.66570100       0.50807500      -4.76654600      -1.57661391       0.11173984      -4.47626034
Fe       0.97242000       3.25012000       3.83975000      -0.85629000      -1.23507100      -0.91491200      -1.10482652      -1.05374760      -0.63491045
Fe       1.43574000       3.84332000       5.84621000      -1.94378300      -0.72872400       4.94145300      -2.06053596      -0.53740660       4.73120074
Fe       0.45897000       5.99881000       1.32384000       1.86679900       1.45939200      -0.33976700       1.67289506       1.46389685      -0.16510879
Fe       0.05714000       6.25044000       6.01250000       0.66851500      -0.88142700       1.67028200       0.62140048      -0.74931561       1.72476323
Fe       1.87526000       7.05991000       7.27744000      -5.90957000       6.81146600       5.95768600      -5.62881833       6.97281474       5.78471770
Fe       4.21220000       0.80536000       3.81626000       0.44958900      -1.97725700       0.54591300       0.53519276      -1.80501998       0.46254840
Fe       2.64196000       0.75311000       5.88605000       0.80305000      -0.92688600      -1.50973400       0.49905543      -1.08955485      -1.50917186
Fe       2.51735000       4.27963000       7.86001000      -0.17185400       2.88247300       0.00075600      -0.18280297       3.06001355       0.06800146
Fe       2.46175000       4.76211000       4.38544000       2.27245000       6.36429500      -0.60000700       2.30225940       6.36848608      -0.48404071
Fe       3.99132000       4.46692000       6.09268000      -0.21521200      -1.96607600      -0.25853400      -0.32915361      -2.19768140      -0.14788951
Fe       4.03283000       6.20484000       2.50717000       0.32509400      -1.83048700       1.07686200       0.36229396      -1.77381713       1.10442686
Fe       2.62183000       8.12097000       1.25125000      -5.45108600      -1.04608100      -0.88869000      -5.59237381      -1.09460009      -0.67225389
Fe       2.34208000       7.49949000       3.33705000      -1.45221900       0.10179900       1.96325000      -1.30002274       0.10650106       1.58632482
Fe       4.67554000       0.98699000       8.35162000       1.97529500       0.95938300       0.07305200       1.71650013       0.86567283       0.32777060
Fe       4.68615000       2.28426000       1.60336000       6.03713100       4.39249100       1.56082500       6.16975036       4.36512037       1.12153713
Fe       4.95897000       4.28949000       0.91503000       1.24258400       3.77490300      -1.07876200       0.79858549       3.55605162      -1.17249298
Fe       5.62605000       3.84953000       3.25301000      -4.56775200       3.43217100       2.09526400      -4.71711057       3.43575225       1.93820973
Fe       5.63153000       5.70233000       4.67966000       0.04558900       0.36352900      -0.74034800       0.10999809      -0.04698148      -0.58444121
Fe       5.00954000       6.14620000       6.89198000       4.51113600      -2.60361300       1.43664400       4.56676417      -2.55896384       1.28954995
Fe       5.34723000       7.32984000       0.56425000       3.41130600      -7.55812200      -7.44238600       3.22877369      -7.15166749      -7.12473933
Fe       4.57141000       8.20633000       1.67615000      -2.51651100       6.57056000       9.11650700      -2.32541497       6.17953232       8.83085691
Fe       5.67084000       7.83697000       6.02451000      -0.02983000       3.57151200       0.33120700      -0.04936763       3.67649110       0.46121769
Fe       7.65837000       1.05332000       0.64336000       1.95813700       2.93603900      -3.62028800       1.79258187       2.79973604      -3.41550770
Fe       7.23579000       1.49494000       3.62009000       0.88838800      -1.50203300       3.00240400       1.06899948      -1.50012467       3.00337896
Fe       6.96409000       1.59543000       6.70415000       0.40175100      -2.57633900      -0.54943900       0.43707593      -2.39030064      -0.47185265
Fe       6.97946000       3.05325000       2.27831000       3.01329100      -2.85779700      -7.80747400       2.65830016      -2.87973806      -7.41648749
Fe       7.05854000       3.62734000       7.13255000       0.94483300       2.42104600       2.56329500       0.99477074       2.27756817       2.35108148
Fe       7.47490000       4.49325000       0.92243000      -3.13561000       0.06366500       0.11142200      -2.80443050       0.40848863      -0.13050911
Fe       7.76499000       5.40883000       4.05655000       3.42051700      -2.49950500       1.10150300       3.62507263      -2.67573414       1.13659291
Fe       6.91686000       6.16423000       2.38917000      -4.34160700       0.52717700      -3.24358900      -4.38010750       0.87021898      -3.25826939
Fe       7.31773000       7.39473000       4.73130000      -1.41907300       3.06948200       1.38572900      -1.45698222       2.98149093       1.32441656
B        1.63947000       5.44017000       2.85377000      -1.37965300       1.67099600      -0.34434500      -1.42083297       1.76402778      -0.53775105
B        3.47444000       1.29905000       1.69513000      -6.04542900      -7.46227000      -1.52467000      -6.12973895      -6.99476157      -1.30269791
B        2.31673000       1.42955000       3.77944000      -1.85652800      -2.14982900       3.21956500      -1.84257744      -1.95132285       3.30046513
B        3.17088000       0.01260000       8.16689000      -2.14308300      -0.12737100      -3.63430700      -2.09490609       0.14074264      -3.46897557
B        2.48887000       2.23189000       2.44876000      -1.30373000       3.96631200      -0.94871100      -0.90642083       3.68564061      -1.24594960
B        3.55016000       3.21990000       0.17024000       2.13469500      -3.52588700       0.23974700       2.14925839      -3.59243606       0.38636222
B        3.12966000       3.07291000       4.24572000      -6.99085300       0.34377600      -0.16579100      -6.83255237       0.09758913      -0.16888317
B        2.38358000       5.95301000       6.34325000       2.25901800      -8.76611800      -6.31465800       2.11916257      -9.05311549      -6.42480958
B        4.46260000       2.62992000       4.23823000       7.08507900      -1.75449200       0.40993300       6.95809321      -1.82374430       0.34365620
B        7.51183000       3.59374000       3.85724000       1.49621300      -1.20378300       3.39561400       1.49442444      -1.00738117       3.22338919
Si       0.50050000       1.66927000       5.10425000      -1.02554400      -2.67263500       2.61432900      -0.78545938      -2.98084338       2.55746601
Si       0.41923000       4.50138000       8.15701000       0.82744200      -0.47721100      -2.57541600       1.09939054      -0.44021252      -2.75154908
Si       2.90131000       4.25049000       1.93860000       2.71957100       0.04497600      -0.88170100       2.69422344       0.00121500      -1.02782400
Si       3.74353000       6.85388000       5.19884000      -1.20766000       1.80214700      -2.20114300      -1.07828520       1.93994571      -2.07667703
Si       3.54209000       6.47938000       8.21357000      -0.45014500      -1.75854100       4.24377300      -0.57153760      -2.01726537       4.41803649
Si       4.55252000       1.74669000       6.40118000       0.28733400       0.20348600      -1.69136000       0.28642327       0.22396675      -1.65326332
Si       5.87020000       3.30923000       5.41310000       1.93974000       0.55942400      -1.14043100       1.68205217       0.82825506      -1.24119167
Si       6.68392000       0.09389000       2.07850000      -2.78148600      -1.30329400       2.70552900      -2.55711072      -1.24074525       2.86171816
Si       7.30980000       7.36953000       0.08595000       4.18267400      -0.22507900      -1.67891000       4.41406005      -0.37528436      -1.74457514
Si       8.41387000       7.50606000       2.97540000       5.08859000       1.78741200      -0.88875800       5.02351696       1.89307277      -0.90547137
54
Lattice="8.579999685 0.0 0.0 0.0 8.579999685 0.0 0.0 0.0 8.5799996" Properties=species:S:1:pos:R:3:REF_forces:R:3:MACE_forces:R:3 config_type=Fe34B10Si10 REF_energy=-359.84864784 MACE_energy=-360.49432771668944 pbc="T T T"
Fe       0.39531000       2.37288000       0.87042000       3.27925500       2.43832800      -1.60261100       3.16736653       2.62031827      -1.70933971
Fe       0.75383000       1.65209000       3.11094000       1.30783500      -0.34615400      -0.09267000       1.37539105      -0.70012656       0.04917607
Fe       1.33201000       3.79282000       7.26231000      -2.40668100      -1.18131200       0.32245500      -2.53871903      -1.19328234       0.18694192
Fe       0.64436000       4.41396000       2.97573000       2.42004200      -2.26182600       0.38963900       2.46533862      -2.06247300       0.21632624
Fe       0.14751000       6.42079000       3.51005000      -3.07002100       1.32407200      -2.30638400      -3.17725306       1.34271824      -2.49230863