54
Lattice="8.579999685 0.0 0.0 0.0 8.579999685 0.0 0.0 0.0 8.5799996" Properties=species:S:1:pos:R:3:REF_forces:R:3:MACE_forces:R:3 config_type=Fe34B10Si10 REF_energy=-352.89092233 MACE_energy=-353.3297857052926 pbc="T T T"
Fe       1.46495000       0.71583000       1.12880000       3.73230100      -3.41607500      -3.76209700       3.68872398      -3.49915264      -3.54567465
Fe       0.56244000       2.07917000       1.96452000      -3.31290700       4.06628900       2.54508600      -3.22838736       3.96057317       2.33876196
Fe       0.86636000       2.12990000       5.00906000     -10.85567700      -2.87102900      12.20968700     -10.93672311      -2.95768988      12.21587160
Fe       0.24697000       2.61233000       7.83061000      -0.37811800      -2.03816900      -0.08744800      -0.41903255      -1.90168290       0.08134175
Fe       0.35437000       4.66395000       8.16447000      -1.30300600       1.62250000       0.84662400      -1.32852348       1.61334524       0.77553470
Fe       0.83543000       8.00840000       3.01492000       5.54921000      -2.55787300       0.52513800       5.70640447      -2.53223392       0.39099641
Fe       2.03952000       7.84431000       6.63062000      -4.28706100       1.82495200      -1.68802900      -4.07534396       1.96694042      -1.63440303
Fe       3.34318000       0.11090000       2.96052000      -0.46571400      -0.35056300       0.37864800      -0.51562036      -0.22228162       0.47529463
Fe       3.26317000       2.11539000       1.48699000      -3.47884800      -0.03222100       0.61542300      -3.41695548      -0.30577313       0.16432316
Fe       4.14313000       2.75755000       3.31065000      -0.71378000      -2.73118300       1.93004800      -0.61768901      -2.41548172       1.86539158
Fe       2.55051000       2.67374000       7.19710000      -2.55215900      -0.93589000       1.77261600      -2.30254284      -1.13990357       1.72035534
Fe       3.61327000       2.86500000       5.46497000       1.55763200       0.20514300      -0.56676300       1.46966777       0.28025516      -0.28664630
Fe       2.62400000       4.72550000       1.39174000      -1.08585200      -1.19598700       0.59645400      -1.35166235      -1.00439084       0.69595434
Fe       2.20317000       5.21693000       3.87451000      -3.92870900      -4.38103900      -4.92199500      -3.85641043      -4.38010956      -4.96880901
Fe       3.93082000       4.37819000       8.08226000       1.07616800       0.44807800      -0.99700400       1.02562800       0.30325037      -0.92526571
Fe       2.44961000       7.01753000       1.08943000       0.32119000      -1.55635000       3.27006500       0.44014487      -1.62860809       3.26292733
Fe       3.02500000       6.15780000       5.08193000      -1.08486800       1.64126100       3.95415400      -0.63560645       1.63378986       4.03692873
Fe       5.77712000       0.44616000       0.16142000      -2.43333700       0.07175000       4.13474700      -2.47540302       0.41051029       4.22212763
Fe       5.66964000       0.14892000       2.95259000      -3.67617900       1.90971100       0.12919700      -3.65909072       1.65383707       0.32120868
Fe       5.39484000       2.66317000       1.55162000       4.08183700      -3.39937100       3.88213200       4.03535567      -3.64977222       4.03816897
Fe       5.91309000       3.40423000       8.31953000       8.90196200       5.48305700      -2.72562400       8.71630746       5.45504995      -2.71339225
Fe       4.96126000       4.63305000       3.41410000      -3.60269200      -2.00302700       2.25051900      -3.72825665      -2.22059540       2.38495219
Fe       5.11347000       6.81217000       1.78872000      -0.87770500       0.06714300      -1.61156800      -0.70356752       0.07186221      -1.57402422
Fe       5.00950000       6.45991000       8.24507000      -2.30619500      -0.19808200      -1.52355700      -2.28695574       0.01257461      -1.67035537
Fe       4.64263000       7.71190000       5.75084000       2.50156800       4.23919200      -1.55456800       2.60891411       4.27261245      -1.59052933
Fe       7.32285000       0.33022000       5.03535000      -0.99210900      -0.59745100       4.73628300      -1.02588912      -0.38147449       4.80794244
Fe       6.75330000       1.32958000       7.05071000       0.53851300       2.01290400       0.36400700       0.56111054       1.82631961       0.28843499
Fe       6.82686000       2.53028000       3.66692000      -0.08907100      -0.12987400      -0.26318300      -0.06034969      -0.21023863      -0.24957110
Fe       6.83617000       5.56618000       0.59386000       1.74434500       1.47371700      -3.32847200       1.81259304       1.63200975      -3.41553657
Fe       8.27091000       4.29855000       2.87718000       3.23308900       0.33980500       1.37352500       3.20664132       0.22288450       1.32441990
Fe       6.58774000       4.90718000       4.97515000      -1.87594500       0.58060600      -0.05143700      -2.12640733       0.61902352      -0.29370827
Fe       6.86773000       6.79187000       3.27473000       1.52763600      -2.76254700       0.67579100       1.39733786      -2.41794526       0.39453081
Fe       8.09083000       8.29691000       0.84396000      -4.18921500      -1.95965200       9.56442300      -4.19400160      -2.33207231       9.67727135
Fe       6.62133000       7.67903000       7.47205000      -3.65417600       1.51975600      -3.32990400      -3.89065449       1.22606167      -3.51899228
B        3.45077000       6.81738000       6.75435000       2.04131500      -2.79808300       3.80923700       1.90996363      -2.70382084       3.94228820
B        4.67436000       1.10514000       4.73414000       0.75036200       0.95391600      -0.52852700       0.82669439       0.87501952      -0.46705324
B        6.18153000       2.20088000       5.47737000      -4.49435700      -3.20609500      -2.27763700      -4.71289714      -3.15075316      -2.47568040
B        5.08133000       4.10197000       6.35983000       0.35152900       0.25548900      -0.65354500       0.57871735       0.33385652      -0.63264803
B        4.48663000       4.29393000       1.40792000      -0.27448100       1.04603100       0.21283300      -0.26653579       1.21839610       0.15498372
B        4.96286000       5.88068000       6.14703000       0.60492000      -1.85032800       0.29314600       0.63141780      -1.92521295       0.12472270
B        8.17242000       5.65216000       5.55863000       1.00443800       0.65677900      -0.69824300       1.02598852       0.73529884      -0.33635715
B        7.98743000       6.92663000       6.60530000       5.86774900       2.58695800      -4.05103700       5.84477728       2.49623107      -3.73863208
B        7.10769000       5.72812000       6.91109000      -2.33709700      -3.34606800       1.34633400      -2.32977274      -3.50905732       1.29641453
B        7.81665000       6.81498000       8.33858000       5.04350100      -2.41043400       0.97359300       5.16992740      -2.41210991       0.75472553
Si       0.06983000       0.14925000       7.74742000       4.12649000       2.60901100      -8.87608100       3.95846377       2.64424902      -8.87063321
Si       1.93337000       2.41223000       3.74634000      10.14534600       2.98113100     -12.18526000      10.23225619       3.11073423     -12.01334578
Si       0.75978000       6.02813000       1.69309000      -4.13401100      -0.74920300       1.02787300      -4.12810805      -0.86580943       1.03037091
Si       2.22023000       5.10313000       7.16329000      -1.58663400       1.19675500      -1.89967800      -1.78301883       1.16206657      -1.93256581
Si       3.27754000       8.17117000       8.35443000       4.04667900       4.58101600      -2.24829100       3.90828742       4.54338946      -2.46547233
Si       4.48145000       2.18337000       8.34202000      -5.72220500      -5.96162700      -4.99603400      -5.48816732      -5.82347837      -5.14486552
Si       6.36439000       4.54151000       2.12641000       2.28764700      -2.33178900       1.39384200       2.59522933      -2.23832970       1.26993012
Si       4.52267000       6.51460000       3.75633000       0.42177200       5.22743800       1.25328700       0.14609429       5.37868601       1.39886877
Si       7.68278000       0.22257000       3.11016000      -0.17295300       4.89916800      -3.86478000      -0.30440682       4.77586913      -3.98370663
Si       7.35363000       3.38410000       6.13231000       4.40786200       1.27045000       2.62604800       4.35133347       1.39328159       2.99282534
54
Lattice="8.579999685 0.0 0.0 0.0 8.579999685 0.0 0.0 0.0 8.5799996" Properties=species:S:1:pos:R:3:REF_forces:R:3:MACE_forces:R:3 config_type=Fe34B10Si10 REF_energy=-354.71875992 MACE_energy=-355.38808003007017 pbc="T T T"
Fe       0.43313000       1.19321000       2.96848000       1.47291300       2.99028000       0.61180900       1.62162246       2.98455028       0.32103367
Fe       0.91365000       1.12516000       8.09995000       2.76260400      -2.00335600       1.20968300       2.56872011      -2.14189817       1.11177752
Fe       1.17142000       2.67870000       5.23446000      -1.90323000       6.04651700       0.58026800      -1.69340399       6.29253203       0.61414467
Fe       0.60772000       3.85484000       0.87278000       2.66909500       4.89444800       4.53699300       2.65510485       5.11198672       4.25660088
Fe       1.41565000       3.44858000       3.01161000      -0.29549500       2.03729500      -0.74017400      -0.27712954       1.93583682      -0.67238950
Fe       0.04226000       2.91249000       8.09734000      -3.39897200      -2.84207300      -2.69442200      -3.08568499      -2.75430088      -2.48949675
Fe       1.33282000       7.09057000       5.22634000      -0.45239700      -1.35392500       0.92503500      -0.21920881      -1.49845734       0.81598613
Fe       2.06045000       7.92051000       0.98063000      -3.11321000      -0.30108300      -2.49280600      -3.23681163      -0.53749182      -2.33356850
Fe       2.03627000       8.24295000       3.50701000      -1.42216600       4.38122900       0.88517600      -1.54114421       4.19797411       0.55970286
Fe       0.01253000       8.02686000       7.00667000       2.58679700       0.98610200     -11.80201700       2.51073903       0.82562031     -11.91471117
Fe       3.00353000       0.57289000       6.13981000      -1.03922300       0.18357300       0.93137300      -0.71545648      -0.02115885       1.08506548
Fe       3.69949000       2.65196000       7.51811000       2.76433000      -4.34399200      -3.80269000       2.56947946      -4.14910870      -3.67111252
Fe       2.94478000       6.44154000       3.03987000       7.21319500      -3.66655800      -1.17614100       7.12918202      -3.38961019      -0.93225595
Fe       2.94309000       5.75189000       6.64956000      -6.24071800      -0.74678300       3.86021800      -6.58902615      -0.75622276       3.88754519
Fe       3.71160000       8.39321000       1.86324000       2.24845700      -0.43546600       0.28887200       2.36660901      -0.25706895       0.52942071
Fe       4.07810000       8.43915000       4.32840000       2.88035800       1.28304800      -0.49181300       2.94108578       1.48265629      -0.80374660
Fe       5.57499000       0.73262000       6.31633000      -3.12774100      -1.68249800      -0.98058200      -2.96963209      -1.73042212      -1.03636163
Fe       4.70712000       1.94493000       1.65492000      -2.04675700       4.97917500      -3.67899600      -2.13975905       4.83672543      -3.40395608
Fe       4.73401000       4.18392000       1.24748000       0.71501700       1.80608500      -0.06999200       0.70851550       1.99791075      -0.14948138
Fe       4.56687000       4.22266000       4.39618000       0.73801700       3.32591500      -2.10569900       0.60290745       3.49450280      -2.30493641
Fe       4.51224000       4.61167000       7.05684000       2.53211900      -0.41024200       0.53825400       2.99162030      -0.69037830       0.64555653
Fe       6.32808000       6.81945000       4.24288000      -3.20445400      -0.33519400      -1.28892300      -2.85377400      -0.29613001      -1.08307246
Fe       6.22240000       7.17309000       0.16230000      -3.30904600      -2.75215800       1.90373500      -3.54252305      -2.98139763       1.93621615
Fe       4.54224000       7.44382000       7.03838000       0.17895600      -5.02037800      -8.74618400       0.15312496      -5.32333470      -8.85963617
Fe       4.73272000       8.55832000       8.35561000      -0.10588400       8.96287400       6.54083400      -0.24868370       9.45781071       6.39917397
Fe       7.67285000       2.82429000       2.17742000      -2.12886900      -0.76272600      -2.06587500      -2.12069905      -0.70203701      -1.91828313
Fe       6.74071000       1.77406000       4.33655000       0.47479500       0.50025500      -0.42349800       0.13236516       0.52536093      -0.55440365
Fe       7.16362000       1.61896000       6.68131000       5.11373900       1.83737400       0.70818800       4.94438807       1.65471710       0.64108945
Fe       6.73653000       4.13840000       7.84564000       0.19062300       0.32905600       3.59274800       0.35332523       0.46333167       3.68608608
Fe       6.61248000       5.35948000       2.44590000       0.96755600      -0.77403900      -0.47053600       0.90726534      -0.76299354      -0.39130269
Fe       8.39074000       4.95678000       4.82580000       0.50677700       3.21370700       1.22596300       0.55364205       3.13995257       1.08144083
Fe       6.62275000       6.29700000       6.29237000       0.91106900      -0.58785400       1.74696000       0.85154088      -0.46592990       1.52347928
Fe       8.00875000       8.14674000       2.12563000      -1.25903800      -1.94608200      -3.37077000      -0.86793023      -1.96343002      -3.53821087
Fe       7.96861000       8.10559000       4.08816000       1.24434400       0.03207600       4.40361200       0.67614370      -0.04154785       4.63462071
B        3.14587000       1.61638000       2.59818000      -3.96044800      -1.57388800      -2.24367700      -4.10251082      -1.54879761      -2.21335207
B        4.07212000       1.93087000       3.78701000       0.55534200       0.12762300      -3.25123200       0.40054362      -0.03571994      -3.36940831
B        2.24412000       1.90783000       4.05913000      -1.80380000      -9.70850100      -5.48536600      -1.84548367      -9.89014294      -5.58355258
B        2.90130000       3.06657000       4.45062000       2.48509300       7.60479000      -1.50334300       2.78483053       7.09813382      -1.37681859
B        2.82587000       3.80138000       5.80651000       0.21675600       2.27927400       3.92227300       0.26708120       2.13538673       3.96002910
B        2.60929000       5.04297000       1.66311000       0.12617300      -0.77075900      -0.46531300      -0.03413070      -0.94851535      -0.47102754
B        2.47198000       4.95014000       4.32601000      -0.76752800      -1.31946700       0.35153300      -0.91470279      -1.13419834       0.34437690
B        2.73354000       7.81887000       7.66829000      -1.47869400      -0.15377200       0.00458000      -1.42027200      -0.13150005       0.09828339
B        5.68071000       2.28134000       7.79544000      -0.95924500       0.41857400       1.11780500      -1.05357865       0.37109250       1.11635066
B        7.77536000       3.70665000       3.76574000      -0.44877700      -1.48394500      -0.38974400      -0.49015075      -1.38287814      -0.18616059
Si       0.79518000       0.92195000       5.77957000      -1.66645900      -4.94136200      -1.10925300      -1.65077135      -5.08026047      -0.92164081
Si       0.88055000       4.20706000       6.73551000       1.15626000       3.58432200      -0.32349000       1.13951067       3.69963926      -0.29148052
Si       1.15025000       6.44729000       2.43826000      -7.77651300      -1.83655100      -1.54918700      -7.83924864      -1.66427890      -1.75274165
Si       2.82820000       3.29548000       0.50208000      -4.05499500       1.58525200       5.32597100      -4.13220464       1.39249520       5.17468214
Si       4.14031000       6.38272000       0.30005000      -2.16949800      -2.44928300       2.57761000      -2.30924180      -2.37145816       2.44569027
Si       3.68345000       6.43010000       5.01209000       3.98893100       0.98565200      -2.13453700       3.92312671       1.20377431      -2.03830781
Si       5.73751000       0.59059000       2.53265000       5.08228400      -4.90021500       2.23852200       5.19582545      -4.99736221       2.53235864
Si       4.51163000       2.47994000       5.36819000       2.60737700      -2.86786400       7.12589500       2.73290949      -2.59476411       7.29718802
Si       6.43436000       3.75222000       5.86206000       1.38008400       0.66155200      -3.64612400       1.50180308       0.68085700      -3.78450990
Si       8.06432000       7.52318000       8.55473000       2.36409700      -3.06603600      11.34847700       2.71015070      -2.74005240      11.34802665
18
Lattice="6.5 0.0 0.0 0.0 6.5 0.0 0.0 0.0 6.5" Properties=species:S:1:pos:R:3:REF_forces:R:3:MACE_forces:R:3 config_type=Fe12B3Si3 REF_energy=-113.87843945 MACE_energy=-112.44340066243052 pbc="T T T"
Fe       5.40234000       5.43492000       1.53729000      -1.39532100       2.04028400       0.71142300      -1.16788987       2.05438079       0.78971132
Fe       2.09750000       2.10361000       0.54730000       2.35673700      -0.33103000       1.27254800       2.71106919      -0.25737915       1.38092349
Fe       2.84360000       1.73250000       3.81271000       2.28004000      -1.18251600      -0.27344700       2.25555423      -1.07298508      -0.32811864
Fe       0.77541000       4.93717000       1.04317000       1.56096300      -3.83372900       1.76362000       1.54734444      -3.66088929       1.57610644
Fe       0.07665000       3.70431000       3.74351000      -0.75952900      -0.39175400      -2.23189700      -0.87315400      -0.47143637      -2.35409157
Fe       4.77171000       3.58949000       4.78220000      -1.99219600      -4.62409700       0.48420500      -1.80286393      -4.54146114       0.44273057
Fe       4.12430000       1.49867000       1.46476000       0.29771700      -2.38794700       0.28396300       0.35187817      -2.68815220       0.15443503
Fe       0.95387000       5.17746000       5.28728000      -0.57085000      -0.50160400      -1.80733600      -0.83059863      -0.68934108      -1.38132080
Fe       1.93602000       3.09888000       2.36598000      -0.08855100       0.43128300      -0.27209000      -0.23439697       0.57556186      -0.37096105
Fe       5.69037000       1.28357000       4.20026000      -0.40866000      -0.49067900       0.18976600      -0.69450439      -0.36393563       0.24595707
Fe       1.94321000       2.86141000       5.39871000      -0.55906500       0.73218900      -1.80086600      -0.68200395       1.12393871      -2.20164322
Fe       4.33122000       5.38124000       5.25469000      -0.73272900       4.56545400       1.52017900      -0.62804935       4.48502176       1.59686124
B        0.37598000       1.64060000       1.21420000      -3.21263000       2.85095800       0.76078000      -3.18926078       2.75932975       1.02855811
B        1.88110000       4.04794000       3.96741000       2.48956600       2.45119300      -0.32261600       2.51913551       2.25552733      -0.28535100
B        3.63878000       0.94242000       5.41981000      -0.01444500       0.67937600       0.95779200       0.03238854       0.77642259       1.08212356
Si       1.19380000       0.26963000       0.19686000       0.54051800       0.24528300      -1.93219100       0.60569096      -0.00255198      -1.88786107
Si       4.57825000       3.47658000       1.16117000       0.15934200       1.26766700      -0.81102600       0.20348629       1.35340425      -0.75823565
Si       1.09558000       0.76720000       2.75124000       0.04909300      -1.52033200       1.50719200      -0.12382545      -1.63545511       1.27017617
54
Lattice="8.579999685 0.0 0.0 0.0 8.579999685 0.0 0.0 0.0 8.5799996" Properties=species:S:1:pos:R:3:REF_forces:R:3:MACE_forces:R:3 config_type=Fe34B10Si10 REF_energy=-356.0869274 MACE_energy=-357.1298014600833 pbc="T T T"
Fe       0.92877000       1.08311000       2.12831000      -0.53214900      -1.15432400       0.53007800      -0.62328997      -1.16433343       0.46268811
Fe       1.12794000       0.45096000       7.37327000      -2.86345100       2.18226700       1.45805300      -2.73010847       2.06698709       1.41271082
Fe       0.91289000       3.61082000       1.96264000      -1.66570100       0.50807500      -4.76654600      -1.57589341       0.11767304      -4.48256039
Fe       0.97242000       3.25012000       3.83975000      -0.85629000      -1.23507100      -0.91491200      -1.10965469      -1.05623823      -0.62994304
Fe       1.43574000       3.84332000       5.84621000      -1.94378300      -0.72872400       4.94145300      -2.05992170      -0.53785124       4.73485525
Fe       0.45897000       5.99881000       1.32384000       1.86679900       1.45939200      -0.33976700       1.67410038       1.46411081      -0.16373828
Fe       0.05714000       6.25044000       6.01250000       0.66851500      -0.88142700       1.67028200       0.62074390      -0.74875869       1.72124964
Fe       1.87526000       7.05991000       7.27744000      -5.90957000       6.81146600       5.95768600      -5.63007037       6.97380625       5.78356730
Fe       4.21220000       0.80536000       3.81626000       0.44958900      -1.97725700       0.54591300       0.53565241      -1.80710906       0.46214719
Fe       2.64196000       0.75311000       5.88605000       0.80305000      -0.92688600      -1.50973400       0.49964943      -1.08914373      -1.50642502
Fe       2.51735000       4.27963000       7.86001000      -0.17185400       2.88247300       0.00075600      -0.18193192       3.05971874       0.06644715
Fe       2.46175000       4.76211000       4.38544000       2.27245000       6.36429500      -0.60000700       2.30578364       6.36878328      -0.48766770
Fe       3.99132000       4.46692000       6.09268000      -0.21521200      -1.96607600      -0.25853400      -0.32611303      -2.19734516      -0.14884689
Fe       4.03283000       6.20484000       2.50717000       0.32509400      -1.83048700       1.07686200       0.36587702      -1.77269933       1.10335477
Fe       2.62183000       8.12097000       1.25125000      -5.45108600      -1.04608100      -0.88869000      -5.58934995      -1.09572824      -0.67240484
Fe       2.34208000       7.49949000       3.33705000      -1.45221900       0.10179900       1.96325000      -1.29934261       0.10662139       1.58698547
Fe       4.67554000       0.98699000       8.35162000       1.97529500       0.95938300       0.07305200       1.71790895       0.86607687       0.32533546
Fe       4.68615000       2.28426000       1.60336000       6.03713100       4.39249100       1.56082500       6.17142495       4.36494805       1.12323845
Fe       4.95897000       4.28949000       0.91503000       1.24258400       3.77490300      -1.07876200       0.79765615       3.55747629      -1.17333307
Fe       5.62605000       3.84953000       3.25301000      -4.56775200       3.43217100       2.09526400      -4.71482077       3.43797288       1.93397173
Fe       5.63153000       5.70233000       4.67966000       0.04558900       0.36352900      -0.74034800       0.10930628      -0.04635185      -0.58477559
Fe       5.00954000       6.14620000       6.89198000       4.51113600      -2.60361300       1.43664400       4.56574658      -2.55595801       1.29071113
Fe       5.34723000       7.32984000       0.56425000       3.41130600      -7.55812200      -7.44238600       3.23286999      -7.14793767      -7.12279211
Fe       4.57141000       8.20633000       1.67615000      -2.51651100       6.57056000       9.11650700      -2.33312643       6.17320274       8.82826804
Fe       5.67084000       7.83697000       6.02451000      -0.02983000       3.57151200       0.33120700      -0.05060476       3.67526378       0.46028614
Fe       7.65837000       1.05332000       0.64336000       1.95813700       2.93603900      -3.62028800       1.79479770       2.80046475      -3.41572298
Fe       7.23579000       1.49494000       3.62009000       0.88838800      -1.50203300       3.00240400       1.06892063      -1.50025195       3.00283346
Fe       6.96409000       1.59543000       6.70415000       0.40175100      -2.57633900      -0.54943900       0.43704411      -2.39146840      -0.47363502
Fe       6.97946000       3.05325000       2.27831000       3.01329100      -2.85779700      -7.80747400       2.65574162      -2.87874653      -7.41383450
Fe       7.05854000       3.62734000       7.13255000       0.94483300       2.42104600       2.56329500       0.99485479       2.27960272       2.35205657
Fe       7.47490000       4.49325000       0.92243000      -3.13561000       0.06366500       0.11142200      -2.80460337       0.40745407      -0.13067557
Fe       7.76499000       5.40883000       4.05655000       3.42051700      -2.49950500       1.10150300       3.62138407      -2.67414047       1.13560194
Fe       6.91686000       6.16423000       2.38917000      -4.34160700       0.52717700      -3.24358900      -4.37773119       0.86669173      -3.25711387
Fe       7.31773000       7.39473000       4.73130000      -1.41907300       3.06948200       1.38572900      -1.45563425       2.98192118       1.32454349
B        1.63947000       5.44017000       2.85377000      -1.37965300       1.67099600      -0.34434500      -1.42400156       1.76193801      -0.54071862
B        3.47444000       1.29905000       1.69513000      -6.04542900      -7.46227000      -1.52467000      -6.12815152      -6.99220257      -1.30081523
B        2.31673000       1.42955000       3.77944000      -1.85652800      -2.14982900       3.21956500      -1.83942944      -1.95177200       3.30212777
B        3.17088000       0.01260000       8.16689000      -2.14308300      -0.12737100      -3.63430700      -2.09569342       0.13968620      -3.46932377
B        2.48887000       2.23189000       2.44876000      -1.30373000       3.96631200      -0.94871100      -0.90419404       3.68789821      -1.24513199
B        3.55016000       3.21990000       0.17024000       2.13469500      -3.52588700       0.23974700       2.14792052      -3.58999322       0.38537214
B        3.12966000       3.07291000       4.24572000      -6.99085300       0.34377600      -0.16579100      -6.83505930       0.09886906      -0.17042338
B        2.38358000       5.95301000       6.34325000       2.25901800      -8.76611800      -6.31465800       2.11818417      -9.05129856      -6.42191128
B        4.46260000       2.62992000       4.23823000       7.08507900      -1.75449200       0.40993300       6.95954308      -1.82469289       0.34387352
B        7.51183000       3.59374000       3.85724000       1.49621300      -1.20378300       3.39561400       1.49502947      -1.00907072       3.22353477
Si       0.50050000       1.66927000       5.10425000      -1.02554400      -2.67263500       2.61432900      -0.78540589      -2.98081856       2.55997676
Si       0.41923000       4.50138000       8.15701000       0.82744200      -0.47721100      -2.57541600       1.09814150      -0.44002838      -2.75087468
Si       2.90131000       4.25049000       1.93860000       2.71957100       0.04497600      -0.88170100       2.69474417       0.00132219      -1.02775173
Si       3.74353000       6.85388000       5.19884000      -1.20766000       1.80214700      -2.20114300      -1.07721225       1.93841894      -2.07785945
Si       3.54209000       6.47938000       8.21357000      -0.45014500      -1.75854100       4.24377300      -0.57203162      -2.01791899       4.41734230
Si       4.55252000       1.74669000       6.40118000       0.28733400       0.20348600      -1.69136000       0.28520692       0.22257224      -1.65058662
Si       5.87020000       3.30923000       5.41310000       1.93974000       0.55942400      -1.14043100       1.68104117       0.82856689      -1.23737270
Si       6.68392000       0.09389000       2.07850000      -2.78148600      -1.30329400       2.70552900      -2.55672448      -1.24087261       2.86028836
Si       7.30980000       7.36953000       0.08595000       4.18267400      -0.22507900      -1.67891000       4.40910649      -0.37742853      -1.74370757
Si       8.41387000       7.50606000       2.97540000       5.08859000       1.78741200      -0.88875800       5.02172028       1.89211160      -0.90342183
54
Lattice="8.579999685 0.0 0.0 0.0 8.579999685 0.0 0.0 0.0 8.5799996" Properties=species:S:1:pos:R:3:REF_forces:R:3:MACE_forces:R:3 config_type=Fe34B10Si10 REF_energy=-359.84864784 MACE_energy=-360.50296373894145 pbc="T T T"
Fe       0.39531000       2.37288000       0.87042000       3.27925500       2.43832800      -1.60261100       3.16697628       2.62338753      -1.71004793
Fe       0.75383000       1.65209000       3.11094000       1.30783500      -0.34615400      -0.09267000       1.37267953      -0.70367430       0.04925632
Fe       1.33201000       3.79282000       7.26231000      -2.40668100      -1.18131200       0.32245500      -2.53651354      -1.19207188       0.18735898
Fe       0.64436000       4.41396000       2.97573000       2.42004200      -2.26182600       0.38963900       2.46447866      -2.06273785       0.21690972
Fe       0.14751000       6.42079000       3.51005000      -3.07002100       1.32407200      -2.30638400      -3.17540617       1.34219793      -2.49183978