54
Lattice="8.579999685 0.0 0.0 0.0 8.579999685 0.0 0.0 0.0 8.5799996" Properties=species:S:1:pos:R:3:REF_forces:R:3:MACE_forces:R:3 config_type=Fe34B10Si10 REF_energy=-352.89092233 MACE_energy=-353.2966817827968 pbc="T T T"
Fe       1.46495000       0.71583000       1.12880000       3.73230100      -3.41607500      -3.76209700       3.68673680      -3.54681008      -3.54768151
Fe       0.56244000       2.07917000       1.96452000      -3.31290700       4.06628900       2.54508600      -3.21593553       3.98088573       2.35723521
Fe       0.86636000       2.12990000       5.00906000     -10.85567700      -2.87102900      12.20968700     -10.95314539      -2.95015307      12.22097082
Fe       0.24697000       2.61233000       7.83061000      -0.37811800      -2.03816900      -0.08744800      -0.42489845      -1.91936590       0.09306164
Fe       0.35437000       4.66395000       8.16447000      -1.30300600       1.62250000       0.84662400      -1.33173697       1.61023730       0.77024584
Fe       0.83543000       8.00840000       3.01492000       5.54921000      -2.55787300       0.52513800       5.70740251      -2.53127389       0.37793303
Fe       2.03952000       7.84431000       6.63062000      -4.28706100       1.82495200      -1.68802900      -4.07174204       1.95977915      -1.65405915
Fe       3.34318000       0.11090000       2.96052000      -0.46571400      -0.35056300       0.37864800      -0.53369859      -0.22029552       0.47410414
Fe       3.26317000       2.11539000       1.48699000      -3.47884800      -0.03222100       0.61542300      -3.42618422      -0.29749028       0.17055949
Fe       4.14313000       2.75755000       3.31065000      -0.71378000      -2.73118300       1.93004800      -0.61162093      -2.38456727       1.84412221
Fe       2.55051000       2.67374000       7.19710000      -2.55215900      -0.93589000       1.77261600      -2.29913076      -1.15165664       1.71159800
Fe       3.61327000       2.86500000       5.46497000       1.55763200       0.20514300      -0.56676300       1.45855012       0.26879212      -0.26881964
Fe       2.62400000       4.72550000       1.39174000      -1.08585200      -1.19598700       0.59645400      -1.35069944      -1.02174528       0.70270792
Fe       2.20317000       5.21693000       3.87451000      -3.92870900      -4.38103900      -4.92199500      -3.86129486      -4.41989726      -4.99087796
Fe       3.93082000       4.37819000       8.08226000       1.07616800       0.44807800      -0.99700400       1.03704032       0.29731297      -0.90939170
Fe       2.44961000       7.01753000       1.08943000       0.32119000      -1.55635000       3.27006500       0.45400493      -1.64974378       3.25780714
Fe       3.02500000       6.15780000       5.08193000      -1.08486800       1.64126100       3.95415400      -0.64275059       1.66552473       4.06326578
Fe       5.77712000       0.44616000       0.16142000      -2.43333700       0.07175000       4.13474700      -2.46724308       0.40256425       4.21700403
Fe       5.66964000       0.14892000       2.95259000      -3.67617900       1.90971100       0.12919700      -3.62712308       1.65280601       0.31150653
Fe       5.39484000       2.66317000       1.55162000       4.08183700      -3.39937100       3.88213200       4.01233109      -3.63459857       4.02199011
Fe       5.91309000       3.40423000       8.31953000       8.90196200       5.48305700      -2.72562400       8.74215964       5.48292143      -2.72611023
Fe       4.96126000       4.63305000       3.41410000      -3.60269200      -2.00302700       2.25051900      -3.72900391      -2.22263451       2.36336776
Fe       5.11347000       6.81217000       1.78872000      -0.87770500       0.06714300      -1.61156800      -0.70467332       0.07398246      -1.55700212
Fe       5.00950000       6.45991000       8.24507000      -2.30619500      -0.19808200      -1.52355700      -2.26216740       0.02973288      -1.66840435
Fe       4.64263000       7.71190000       5.75084000       2.50156800       4.23919200      -1.55456800       2.61878764       4.24254277      -1.58901790
Fe       7.32285000       0.33022000       5.03535000      -0.99210900      -0.59745100       4.73628300      -1.02290690      -0.38976709       4.82508899
Fe       6.75330000       1.32958000       7.05071000       0.53851300       2.01290400       0.36400700       0.56716718       1.82327490       0.27145857
Fe       6.82686000       2.53028000       3.66692000      -0.08907100      -0.12987400      -0.26318300      -0.07303026      -0.22363579      -0.24236274
Fe       6.83617000       5.56618000       0.59386000       1.74434500       1.47371700      -3.32847200       1.80206903       1.61690653      -3.38098489
Fe       8.27091000       4.29855000       2.87718000       3.23308900       0.33980500       1.37352500       3.21914172       0.24219886       1.34562238
Fe       6.58774000       4.90718000       4.97515000      -1.87594500       0.58060600      -0.05143700      -2.14836842       0.59000623      -0.26809395
Fe       6.86773000       6.79187000       3.27473000       1.52763600      -2.76254700       0.67579100       1.40089308      -2.40421413       0.41237309
Fe       8.09083000       8.29691000       0.84396000      -4.18921500      -1.95965200       9.56442300      -4.23088657      -2.33396141       9.66806913
Fe       6.62133000       7.67903000       7.47205000      -3.65417600       1.51975600      -3.32990400      -3.88792817       1.23593440      -3.52064237
B        3.45077000       6.81738000       6.75435000       2.04131500      -2.79808300       3.80923700       1.90367950      -2.69533892       3.92276748
B        4.67436000       1.10514000       4.73414000       0.75036200       0.95391600      -0.52852700       0.82224822       0.86765440      -0.46353983
B        6.18153000       2.20088000       5.47737000      -4.49435700      -3.20609500      -2.27763700      -4.70818880      -3.15174558      -2.45955978
B        5.08133000       4.10197000       6.35983000       0.35152900       0.25548900      -0.65354500       0.58449110       0.34133033      -0.66362544
B        4.48663000       4.29393000       1.40792000      -0.27448100       1.04603100       0.21283300      -0.27120459       1.21335789       0.16591015
B        4.96286000       5.88068000       6.14703000       0.60492000      -1.85032800       0.29314600       0.65370822      -1.91945549       0.12104379
B        8.17242000       5.65216000       5.55863000       1.00443800       0.65677900      -0.69824300       1.03365213       0.77040625      -0.34927858
B        7.98743000       6.92663000       6.60530000       5.86774900       2.58695800      -4.05103700       5.84770970       2.53952904      -3.74425164
B        7.10769000       5.72812000       6.91109000      -2.33709700      -3.34606800       1.34633400      -2.35152113      -3.52164965       1.28216011
B        7.81665000       6.81498000       8.33858000       5.04350100      -2.41043400       0.97359300       5.18339481      -2.41582354       0.76211455
Si       0.06983000       0.14925000       7.74742000       4.12649000       2.60901100      -8.87608100       3.95310704       2.62966811      -8.86743981
Si       1.93337000       2.41223000       3.74634000      10.14534600       2.98113100     -12.18526000      10.23368138       3.10983948     -12.00530672
Si       0.75978000       6.02813000       1.69309000      -4.13401100      -0.74920300       1.02787300      -4.12920243      -0.86664735       1.04232870
Si       2.22023000       5.10313000       7.16329000      -1.58663400       1.19675500      -1.89967800      -1.77492285       1.19324179      -1.94097118
Si       3.27754000       8.17117000       8.35443000       4.04667900       4.58101600      -2.24829100       3.90975162       4.53944237      -2.48011668
Si       4.48145000       2.18337000       8.34202000      -5.72220500      -5.96162700      -4.99603400      -5.49032832      -5.82564188      -5.12990543
Si       6.36439000       4.54151000       2.12641000       2.28764700      -2.33178900       1.39384200       2.61114981      -2.24506812       1.24998323
Si       4.52267000       6.51460000       3.75633000       0.42177200       5.22743800       1.25328700       0.15056045       5.39740459       1.40859229
Si       7.68278000       0.22257000       3.11016000      -0.17295300       4.89916800      -3.86478000      -0.31637405       4.76133249      -3.99465786
Si       7.35363000       3.38410000       6.13231000       4.40786200       1.27045000       2.62604800       4.32449300       1.40457155       2.98710933
54
Lattice="8.579999685 0.0 0.0 0.0 8.579999685 0.0 0.0 0.0 8.5799996" Properties=species:S:1:pos:R:3:REF_forces:R:3:MACE_forces:R:3 config_type=Fe34B10Si10 REF_energy=-354.71875992 MACE_energy=-355.33514203081364 pbc="T T T"
Fe       0.43313000       1.19321000       2.96848000       1.47291300       2.99028000       0.61180900       1.61198994       2.98791029       0.30460367
Fe       0.91365000       1.12516000       8.09995000       2.76260400      -2.00335600       1.20968300       2.59573027      -2.18015965       1.12862456
Fe       1.17142000       2.67870000       5.23446000      -1.90323000       6.04651700       0.58026800      -1.66990631       6.31230722       0.60214562
Fe       0.60772000       3.85484000       0.87278000       2.66909500       4.89444800       4.53699300       2.67486238       5.09225123       4.28462097
Fe       1.41565000       3.44858000       3.01161000      -0.29549500       2.03729500      -0.74017400      -0.29410454       1.93435562      -0.67216537
Fe       0.04226000       2.91249000       8.09734000      -3.39897200      -2.84207300      -2.69442200      -3.14054283      -2.75277734      -2.53133918
Fe       1.33282000       7.09057000       5.22634000      -0.45239700      -1.35392500       0.92503500      -0.20533004      -1.49751305       0.80655698
Fe       2.06045000       7.92051000       0.98063000      -3.11321000      -0.30108300      -2.49280600      -3.23987501      -0.53979139      -2.32625435
Fe       2.03627000       8.24295000       3.50701000      -1.42216600       4.38122900       0.88517600      -1.51828770       4.19603127       0.54657256
Fe       0.01253000       8.02686000       7.00667000       2.58679700       0.98610200     -11.80201700       2.50843603       0.82954081     -11.93434908
Fe       3.00353000       0.57289000       6.13981000      -1.03922300       0.18357300       0.93137300      -0.71363620      -0.02216735       1.08166592
Fe       3.69949000       2.65196000       7.51811000       2.76433000      -4.34399200      -3.80269000       2.57132424      -4.13756355      -3.70399975
Fe       2.94478000       6.44154000       3.03987000       7.21319500      -3.66655800      -1.17614100       7.11360271      -3.34010851      -0.90191007
Fe       2.94309000       5.75189000       6.64956000      -6.24071800      -0.74678300       3.86021800      -6.62199694      -0.77010300       3.87764470
Fe       3.71160000       8.39321000       1.86324000       2.24845700      -0.43546600       0.28887200       2.34686300      -0.24459883       0.52990464
Fe       4.07810000       8.43915000       4.32840000       2.88035800       1.28304800      -0.49181300       2.95172711       1.49301039      -0.81191598
Fe       5.57499000       0.73262000       6.31633000      -3.12774100      -1.68249800      -0.98058200      -3.00642737      -1.73997214      -1.02979610
Fe       4.70712000       1.94493000       1.65492000      -2.04675700       4.97917500      -3.67899600      -2.15238732       4.80831413      -3.40114822
Fe       4.73401000       4.18392000       1.24748000       0.71501700       1.80608500      -0.06999200       0.72707264       2.00473529      -0.15600508
Fe       4.56687000       4.22266000       4.39618000       0.73801700       3.32591500      -2.10569900       0.62785975       3.51400834      -2.32132655
Fe       4.51224000       4.61167000       7.05684000       2.53211900      -0.41024200       0.53825400       2.99700101      -0.70481888       0.65167727
Fe       6.32808000       6.81945000       4.24288000      -3.20445400      -0.33519400      -1.28892300      -2.86731898      -0.32716639      -1.09664410
Fe       6.22240000       7.17309000       0.16230000      -3.30904600      -2.75215800       1.90373500      -3.56385788      -2.98252376       1.90292369
Fe       4.54224000       7.44382000       7.03838000       0.17895600      -5.02037800      -8.74618400       0.16854734      -5.30738860      -8.86671027
Fe       4.73272000       8.55832000       8.35561000      -0.10588400       8.96287400       6.54083400      -0.24589310       9.50005853       6.45477524
Fe       7.67285000       2.82429000       2.17742000      -2.12886900      -0.76272600      -2.06587500      -2.11078424      -0.69265863      -1.92817809
Fe       6.74071000       1.77406000       4.33655000       0.47479500       0.50025500      -0.42349800       0.15092834       0.53859973      -0.57358369
Fe       7.16362000       1.61896000       6.68131000       5.11373900       1.83737400       0.70818800       4.98724920       1.65849700       0.64498048
Fe       6.73653000       4.13840000       7.84564000       0.19062300       0.32905600       3.59274800       0.34551697       0.46175161       3.69746068
Fe       6.61248000       5.35948000       2.44590000       0.96755600      -0.77403900      -0.47053600       0.91989241      -0.77243063      -0.37046028
Fe       8.39074000       4.95678000       4.82580000       0.50677700       3.21370700       1.22596300       0.53467861       3.13781392       1.09905421
Fe       6.62275000       6.29700000       6.29237000       0.91106900      -0.58785400       1.74696000       0.85747338      -0.46262561       1.53152442
Fe       8.00875000       8.14674000       2.12563000      -1.25903800      -1.94608200      -3.37077000      -0.86922244      -1.96873292      -3.54612319
Fe       7.96861000       8.10559000       4.08816000       1.24434400       0.03207600       4.40361200       0.70242060      -0.04466790       4.64856797
B        3.14587000       1.61638000       2.59818000      -3.96044800      -1.57388800      -2.24367700      -4.09999143      -1.56191735      -2.21008095
B        4.07212000       1.93087000       3.78701000       0.55534200       0.12762300      -3.25123200       0.40658395      -0.05064237      -3.41529927
B        2.24412000       1.90783000       4.05913000      -1.80380000      -9.70850100      -5.48536600      -1.83634619      -9.88341022      -5.59047839
B        2.90130000       3.06657000       4.45062000       2.48509300       7.60479000      -1.50334300       2.76885578       7.03501320      -1.32896235
B        2.82587000       3.80138000       5.80651000       0.21675600       2.27927400       3.92227300       0.29354590       2.14808841       3.98206405
B        2.60929000       5.04297000       1.66311000       0.12617300      -0.77075900      -0.46531300      -0.04708107      -0.94167926      -0.47029635
B        2.47198000       4.95014000       4.32601000      -0.76752800      -1.31946700       0.35153300      -0.92092923      -1.11205044       0.32715467
B        2.73354000       7.81887000       7.66829000      -1.47869400      -0.15377200       0.00458000      -1.41002804      -0.12833582       0.11051991
B        5.68071000       2.28134000       7.79544000      -0.95924500       0.41857400       1.11780500      -1.04982242       0.37831049       1.11807864
B        7.77536000       3.70665000       3.76574000      -0.44877700      -1.48394500      -0.38974400      -0.50424092      -1.37400573      -0.18851328
Si       0.79518000       0.92195000       5.77957000      -1.66645900      -4.94136200      -1.10925300      -1.65146756      -5.10608464      -0.91173077
Si       0.88055000       4.20706000       6.73551000       1.15626000       3.58432200      -0.32349000       1.13000697       3.71340025      -0.27349159
Si       1.15025000       6.44729000       2.43826000      -7.77651300      -1.83655100      -1.54918700      -7.82822509      -1.63990495      -1.75444147
Si       2.82820000       3.29548000       0.50208000      -4.05499500       1.58525200       5.32597100      -4.15093687       1.39484881       5.13688289
Si       4.14031000       6.38272000       0.30005000      -2.16949800      -2.44928300       2.57761000      -2.30685938      -2.39308468       2.43591968
Si       3.68345000       6.43010000       5.01209000       3.98893100       0.98565200      -2.13453700       3.91958417       1.18801322      -2.03162269
Si       5.73751000       0.59059000       2.53265000       5.08228400      -4.90021500       2.23852200       5.21723872      -5.01523799       2.54959420
Si       4.51163000       2.47994000       5.36819000       2.60737700      -2.86786400       7.12589500       2.70183464      -2.58871743       7.31242970
Si       6.43436000       3.75222000       5.86206000       1.38008400       0.66155200      -3.64612400       1.48600161       0.69596835      -3.78866925
Si       8.06432000       7.52318000       8.55473000       2.36409700      -3.06603600      11.34847700       2.70867145      -2.73998909      11.36954837
18
Lattice="6.5 0.0 0.0 0.0 6.5 0.0 0.0 0.0 6.5" Properties=species:S:1:pos:R:3:REF_forces:R:3:MACE_forces:R:3 config_type=Fe12B3Si3 REF_energy=-113.87843945 MACE_energy=-112.51842704078615 pbc="T T T"
Fe       5.40234000       5.43492000       1.53729000      -1.39532100       2.04028400       0.71142300      -1.13909742       2.05819298       0.77440574
Fe       2.09750000       2.10361000       0.54730000       2.35673700      -0.33103000       1.27254800       2.77434902      -0.25447094       1.32612690
Fe       2.84360000       1.73250000       3.81271000       2.28004000      -1.18251600      -0.27344700       2.27115169      -1.09776849      -0.31995652
Fe       0.77541000       4.93717000       1.04317000       1.56096300      -3.83372900       1.76362000       1.54270324      -3.67705747       1.58450955
Fe       0.07665000       3.70431000       3.74351000      -0.75952900      -0.39175400      -2.23189700      -0.81138537      -0.46254006      -2.37660413
Fe       4.77171000       3.58949000       4.78220000      -1.99219600      -4.62409700       0.48420500      -1.84543025      -4.55243550       0.46492247
Fe       4.12430000       1.49867000       1.46476000       0.29771700      -2.38794700       0.28396300       0.37620413      -2.68499505       0.14310498
Fe       0.95387000       5.17746000       5.28728000      -0.57085000      -0.50160400      -1.80733600      -0.79967597      -0.67108617      -1.39320490
Fe       1.93602000       3.09888000       2.36598000      -0.08855100       0.43128300      -0.27209000      -0.23666619       0.60837298      -0.36074502
Fe       5.69037000       1.28357000       4.20026000      -0.40866000      -0.49067900       0.18976600      -0.65729386      -0.38597931       0.23731757
Fe       1.94321000       2.86141000       5.39871000      -0.55906500       0.73218900      -1.80086600      -0.73087912       1.21966561      -2.21970306
Fe       4.33122000       5.38124000       5.25469000      -0.73272900       4.56545400       1.52017900      -0.62454316       4.51340777       1.60722491
B        0.37598000       1.64060000       1.21420000      -3.21263000       2.85095800       0.76078000      -3.24891521       2.73002256       1.03513562
B        1.88110000       4.04794000       3.96741000       2.48956600       2.45119300      -0.32261600       2.50637283       2.18996929      -0.23250510
B        3.63878000       0.94242000       5.41981000      -0.01444500       0.67937600       0.95779200       0.00586108       0.77807185       1.10345502
Si       1.19380000       0.26963000       0.19686000       0.54051800       0.24528300      -1.93219100       0.57341644      -0.01160992      -1.88544214
Si       4.57825000       3.47658000       1.16117000       0.15934200       1.26766700      -0.81102600       0.18999149       1.33280605      -0.76295642
Si       1.09558000       0.76720000       2.75124000       0.04909300      -1.52033200       1.50719200      -0.14616337      -1.63256618       1.27491453
54
Lattice="8.579999685 0.0 0.0 0.0 8.579999685 0.0 0.0 0.0 8.5799996" Properties=species:S:1:pos:R:3:REF_forces:R:3:MACE_forces:R:3 config_type=Fe34B10Si10 REF_energy=-356.0869274 MACE_energy=-357.0373101214901 pbc="T T T"
Fe       0.92877000       1.08311000       2.12831000      -0.53214900      -1.15432400       0.53007800      -0.59957911      -1.16429516       0.47204267
Fe       1.12794000       0.45096000       7.37327000      -2.86345100       2.18226700       1.45805300      -2.75559507       2.11600569       1.41036549
Fe       0.91289000       3.61082000       1.96264000      -1.66570100       0.50807500      -4.76654600      -1.58270789       0.06522196      -4.43423591
Fe       0.97242000       3.25012000       3.83975000      -0.85629000      -1.23507100      -0.91491200      -1.06529273      -1.03316664      -0.66856639
Fe       1.43574000       3.84332000       5.84621000      -1.94378300      -0.72872400       4.94145300      -2.06949855      -0.53647666       4.70222156
Fe       0.45897000       5.99881000       1.32384000       1.86679900       1.45939200      -0.33976700       1.67089506       1.46361689      -0.17258164
Fe       0.05714000       6.25044000       6.01250000       0.66851500      -0.88142700       1.67028200       0.62392827      -0.76011549       1.75112859
Fe       1.87526000       7.05991000       7.27744000      -5.90957000       6.81146600       5.95768600      -5.61858338       6.96812146       5.79801919
Fe       4.21220000       0.80536000       3.81626000       0.44958900      -1.97725700       0.54591300       0.53207900      -1.79104378       0.47107448
Fe       2.64196000       0.75311000       5.88605000       0.80305000      -0.92688600      -1.50973400       0.49364411      -1.09192370      -1.53280913
Fe       2.51735000       4.27963000       7.86001000      -0.17185400       2.88247300       0.00075600      -0.18909415       3.06107701       0.08096757
Fe       2.46175000       4.76211000       4.38544000       2.27245000       6.36429500      -0.60000700       2.26397300       6.37044758      -0.45797011
Fe       3.99132000       4.46692000       6.09268000      -0.21521200      -1.96607600      -0.25853400      -0.34828306      -2.20548915      -0.13903402
Fe       4.03283000       6.20484000       2.50717000       0.32509400      -1.83048700       1.07686200       0.33621906      -1.78564866       1.11272546
Fe       2.62183000       8.12097000       1.25125000      -5.45108600      -1.04608100      -0.88869000      -5.61606854      -1.08646549      -0.66907328
Fe       2.34208000       7.49949000       3.33705000      -1.45221900       0.10179900       1.96325000      -1.30657289       0.10850179       1.58639324
Fe       4.67554000       0.98699000       8.35162000       1.97529500       0.95938300       0.07305200       1.70189151       0.86777224       0.34817492
Fe       4.68615000       2.28426000       1.60336000       6.03713100       4.39249100       1.56082500       6.15823082       4.36211283       1.10100951
Fe       4.95897000       4.28949000       0.91503000       1.24258400       3.77490300      -1.07876200       0.80847566       3.55067579      -1.16879451
Fe       5.62605000       3.84953000       3.25301000      -4.56775200       3.43217100       2.09526400      -4.72613688       3.41501242       1.97248741
Fe       5.63153000       5.70233000       4.67966000       0.04558900       0.36352900      -0.74034800       0.11818270      -0.04991499      -0.58052710
Fe       5.00954000       6.14620000       6.89198000       4.51113600      -2.60361300       1.43664400       4.58091364      -2.58024858       1.28190191
Fe       5.34723000       7.32984000       0.56425000       3.41130600      -7.55812200      -7.44238600       3.18912798      -7.18254221      -7.13928388
Fe       4.57141000       8.20633000       1.67615000      -2.51651100       6.57056000       9.11650700      -2.26570157       6.23197901       8.85559066
Fe       5.67084000       7.83697000       6.02451000      -0.02983000       3.57151200       0.33120700      -0.03908867       3.68995360       0.46346142
Fe       7.65837000       1.05332000       0.64336000       1.95813700       2.93603900      -3.62028800       1.77459186       2.79680276      -3.41359788
Fe       7.23579000       1.49494000       3.62009000       0.88838800      -1.50203300       3.00240400       1.06481496      -1.49488034       3.00411136
Fe       6.96409000       1.59543000       6.70415000       0.40175100      -2.57633900      -0.54943900       0.43796012      -2.38676022      -0.46024998
Fe       6.97946000       3.05325000       2.27831000       3.01329100      -2.85779700      -7.80747400       2.67897626      -2.89194416      -7.43985022
Fe       7.05854000       3.62734000       7.13255000       0.94483300       2.42104600       2.56329500       0.99585008       2.26815046       2.34446078
Fe       7.47490000       4.49325000       0.92243000      -3.13561000       0.06366500       0.11142200      -2.80976096       0.41687317      -0.12791271
Fe       7.76499000       5.40883000       4.05655000       3.42051700      -2.49950500       1.10150300       3.65383334      -2.68859097       1.14383548
Fe       6.91686000       6.16423000       2.38917000      -4.34160700       0.52717700      -3.24358900      -4.40183496       0.89440787      -3.26438220
Fe       7.31773000       7.39473000       4.73130000      -1.41907300       3.06948200       1.38572900      -1.46749454       2.97535883       1.32712484
B        1.63947000       5.44017000       2.85377000      -1.37965300       1.67099600      -0.34434500      -1.39679006       1.78041846      -0.50954216
B        3.47444000       1.29905000       1.69513000      -6.04542900      -7.46227000      -1.52467000      -6.13997943      -7.01879043      -1.31894516
B        2.31673000       1.42955000       3.77944000      -1.85652800      -2.14982900       3.21956500      -1.86371178      -1.95177318       3.28851918
B        3.17088000       0.01260000       8.16689000      -2.14308300      -0.12737100      -3.63430700      -2.07795355       0.15231684      -3.47074940
B        2.48887000       2.23189000       2.44876000      -1.30373000       3.96631200      -0.94871100      -0.93195850       3.66738921      -1.25731757
B        3.55016000       3.21990000       0.17024000       2.13469500      -3.52588700       0.23974700       2.16237696      -3.61433616       0.39087571
B        3.12966000       3.07291000       4.24572000      -6.99085300       0.34377600      -0.16579100      -6.81988860       0.08635395      -0.15473872
B        2.38358000       5.95301000       6.34325000       2.25901800      -8.76611800      -6.31465800       2.12714860      -9.06930058      -6.45232326
B        4.46260000       2.62992000       4.23823000       7.08507900      -1.75449200       0.40993300       6.95302941      -1.82242052       0.34817666
B        7.51183000       3.59374000       3.85724000       1.49621300      -1.20378300       3.39561400       1.48901004      -0.99207990       3.22366962
Si       0.50050000       1.66927000       5.10425000      -1.02554400      -2.67263500       2.61432900      -0.78404811      -2.97872851       2.53550261
Si       0.41923000       4.50138000       8.15701000       0.82744200      -0.47721100      -2.57541600       1.10897754      -0.43893431      -2.76023283
Si       2.90131000       4.25049000       1.93860000       2.71957100       0.04497600      -0.88170100       2.69099147       0.00113455      -1.02983834
Si       3.74353000       6.85388000       5.19884000      -1.20766000       1.80214700      -2.20114300      -1.09064831       1.95588058      -2.06473754
Si       3.54209000       6.47938000       8.21357000      -0.45014500      -1.75854100       4.24377300      -0.57174112      -2.01474707       4.42922882
Si       4.55252000       1.74669000       6.40118000       0.28733400       0.20348600      -1.69136000       0.29221492       0.23468566      -1.67741458
Si       5.87020000       3.30923000       5.41310000       1.93974000       0.55942400      -1.14043100       1.69274546       0.82491678      -1.27243889
Si       6.68392000       0.09389000       2.07850000      -2.78148600      -1.30329400       2.70552900      -2.56636499      -1.23830249       2.87383967
Si       7.30980000       7.36953000       0.08595000       4.18267400      -0.22507900      -1.67891000       4.46090271      -0.35911490      -1.75726755
Si       8.41387000       7.50606000       2.97540000       5.08859000       1.78741200      -0.88875800       5.04339285       1.90284683      -0.92249386
54
Lattice="8.579999685 0.0 0.0 0.0 8.579999685 0.0 0.0 0.0 8.5799996" Properties=species:S:1:pos:R:3:REF_forces:R:3:MACE_forces:R:3 config_type=Fe34B10Si10 REF_energy=-359.84864784 MACE_energy=-360.41297320554463 pbc="T T T"
Fe       0.39531000       2.37288000       0.87042000       3.27925500       2.43832800      -1.60261100       3.16838392       2.59489899      -1.70516504
Fe       0.75383000       1.65209000       3.11094000       1.30783500      -0.34615400      -0.09267000       1.39279408      -0.66800005       0.04673175
Fe       1.33201000       3.79282000       7.26231000      -2.40668100      -1.18131200       0.32245500      -2.55530084      -1.20219726       0.18969817
Fe       0.64436000       4.41396000       2.97573000       2.42004200      -2.26182600       0.38963900       2.47595843      -2.06393156       0.20978181
Fe       0.14751000       6.42079000       3.51005000      -3.07002100       1.32407200      -2.30638400      -3.19488301       1.34915614      -2.50078040