54
Lattice="8.579999685 0.0 0.0 0.0 8.579999685 0.0 0.0 0.0 8.5799996" Properties=species:S:1:pos:R:3:REF_forces:R:3:MACE_forces:R:3 config_type=Fe34B10Si10 REF_energy=-352.89092233 MACE_energy=-353.3277091792237 pbc="T T T"
Fe       1.46495000       0.71583000       1.12880000       3.73230100      -3.41607500      -3.76209700       3.67824987      -3.50495006      -3.54331695
Fe       0.56244000       2.07917000       1.96452000      -3.31290700       4.06628900       2.54508600      -3.22525343       3.96530780       2.34608921
Fe       0.86636000       2.12990000       5.00906000     -10.85567700      -2.87102900      12.20968700     -10.93593850      -2.95371667      12.21765981
Fe       0.24697000       2.61233000       7.83061000      -0.37811800      -2.03816900      -0.08744800      -0.40776042      -1.89301394       0.08015510
Fe       0.35437000       4.66395000       8.16447000      -1.30300600       1.62250000       0.84662400      -1.33783712       1.60732962       0.77649841
Fe       0.83543000       8.00840000       3.01492000       5.54921000      -2.55787300       0.52513800       5.70520691      -2.53611534       0.38979445
Fe       2.03952000       7.84431000       6.63062000      -4.28706100       1.82495200      -1.68802900      -4.07349634       1.96266017      -1.63603766
Fe       3.34318000       0.11090000       2.96052000      -0.46571400      -0.35056300       0.37864800      -0.51757800      -0.23007731       0.46742824
Fe       3.26317000       2.11539000       1.48699000      -3.47884800      -0.03222100       0.61542300      -3.40425291      -0.29486645       0.17613665
Fe       4.14313000       2.75755000       3.31065000      -0.71378000      -2.73118300       1.93004800      -0.61715934      -2.40237039       1.86321532
Fe       2.55051000       2.67374000       7.19710000      -2.55215900      -0.93589000       1.77261600      -2.31076418      -1.13883276       1.71304916
Fe       3.61327000       2.86500000       5.46497000       1.55763200       0.20514300      -0.56676300       1.46430940       0.27813609      -0.28155289
Fe       2.62400000       4.72550000       1.39174000      -1.08585200      -1.19598700       0.59645400      -1.35221234      -1.01044227       0.69384852
Fe       2.20317000       5.21693000       3.87451000      -3.92870900      -4.38103900      -4.92199500      -3.85742452      -4.38377220      -4.97475263
Fe       3.93082000       4.37819000       8.08226000       1.07616800       0.44807800      -0.99700400       1.02127494       0.29904320      -0.93262062
Fe       2.44961000       7.01753000       1.08943000       0.32119000      -1.55635000       3.27006500       0.44355213      -1.62306290       3.26558971
Fe       3.02500000       6.15780000       5.08193000      -1.08486800       1.64126100       3.95415400      -0.63461716       1.64622326       4.05084330
Fe       5.77712000       0.44616000       0.16142000      -2.43333700       0.07175000       4.13474700      -2.47821109       0.41078990       4.21522691
Fe       5.66964000       0.14892000       2.95259000      -3.67617900       1.90971100       0.12919700      -3.64914014       1.64110212       0.32288726
Fe       5.39484000       2.66317000       1.55162000       4.08183700      -3.39937100       3.88213200       4.03146938      -3.64992035       4.04086553
Fe       5.91309000       3.40423000       8.31953000       8.90196200       5.48305700      -2.72562400       8.70877890       5.45369929      -2.70474272
Fe       4.96126000       4.63305000       3.41410000      -3.60269200      -2.00302700       2.25051900      -3.73808825      -2.21286211       2.37232032
Fe       5.11347000       6.81217000       1.78872000      -0.87770500       0.06714300      -1.61156800      -0.70483315       0.07922783      -1.56546462
Fe       5.00950000       6.45991000       8.24507000      -2.30619500      -0.19808200      -1.52355700      -2.27834458       0.01723878      -1.67766166
Fe       4.64263000       7.71190000       5.75084000       2.50156800       4.23919200      -1.55456800       2.60969664       4.27323971      -1.58800967
Fe       7.32285000       0.33022000       5.03535000      -0.99210900      -0.59745100       4.73628300      -1.02654270      -0.38270072       4.80193810
Fe       6.75330000       1.32958000       7.05071000       0.53851300       2.01290400       0.36400700       0.56244770       1.82584016       0.28625285
Fe       6.82686000       2.53028000       3.66692000      -0.08907100      -0.12987400      -0.26318300      -0.05790471      -0.21019366      -0.24065594
Fe       6.83617000       5.56618000       0.59386000       1.74434500       1.47371700      -3.32847200       1.81458390       1.62970690      -3.42137104
Fe       8.27091000       4.29855000       2.87718000       3.23308900       0.33980500       1.37352500       3.20536435       0.22883937       1.32361620
Fe       6.58774000       4.90718000       4.97515000      -1.87594500       0.58060600      -0.05143700      -2.11172229       0.61639803      -0.29898291
Fe       6.86773000       6.79187000       3.27473000       1.52763600      -2.76254700       0.67579100       1.38948225      -2.41833771       0.38802541
Fe       8.09083000       8.29691000       0.84396000      -4.18921500      -1.95965200       9.56442300      -4.18349872      -2.32371636       9.67560945
Fe       6.62133000       7.67903000       7.47205000      -3.65417600       1.51975600      -3.32990400      -3.89930547       1.24571796      -3.51540500
B        3.45077000       6.81738000       6.75435000       2.04131500      -2.79808300       3.80923700       1.92114926      -2.70864914       3.93584948
B        4.67436000       1.10514000       4.73414000       0.75036200       0.95391600      -0.52852700       0.82365971       0.87390070      -0.46360122
B        6.18153000       2.20088000       5.47737000      -4.49435700      -3.20609500      -2.27763700      -4.70378498      -3.14548452      -2.47022470
B        5.08133000       4.10197000       6.35983000       0.35152900       0.25548900      -0.65354500       0.57393324       0.33655157      -0.63263312
B        4.48663000       4.29393000       1.40792000      -0.27448100       1.04603100       0.21283300      -0.26084152       1.21819125       0.16605707
B        4.96286000       5.88068000       6.14703000       0.60492000      -1.85032800       0.29314600       0.62716336      -1.92935430       0.12962145
B        8.17242000       5.65216000       5.55863000       1.00443800       0.65677900      -0.69824300       1.01263936       0.72971330      -0.32017970
B        7.98743000       6.92663000       6.60530000       5.86774900       2.58695800      -4.05103700       5.84384922       2.49243175      -3.74508286
B        7.10769000       5.72812000       6.91109000      -2.33709700      -3.34606800       1.34633400      -2.31640000      -3.52584212       1.29634159
B        7.81665000       6.81498000       8.33858000       5.04350100      -2.41043400       0.97359300       5.16263525      -2.42420866       0.74983600
Si       0.06983000       0.14925000       7.74742000       4.12649000       2.60901100      -8.87608100       3.95272932       2.64012637      -8.85756576
Si       1.93337000       2.41223000       3.74634000      10.14534600       2.98113100     -12.18526000      10.23188540       3.10740641     -12.01978317
Si       0.75978000       6.02813000       1.69309000      -4.13401100      -0.74920300       1.02787300      -4.13421008      -0.87067238       1.03003679
Si       2.22023000       5.10313000       7.16329000      -1.58663400       1.19675500      -1.89967800      -1.78047327       1.16536820      -1.93347465
Si       3.27754000       8.17117000       8.35443000       4.04667900       4.58101600      -2.24829100       3.90126118       4.54224024      -2.46346352
Si       4.48145000       2.18337000       8.34202000      -5.72220500      -5.96162700      -4.99603400      -5.48400747      -5.82042822      -5.15507738
Si       6.36439000       4.54151000       2.12641000       2.28764700      -2.33178900       1.39384200       2.58712613      -2.23598365       1.26560372
Si       4.52267000       6.51460000       3.75633000       0.42177200       5.22743800       1.25328700       0.16067756       5.37476618       1.39560852
Si       7.68278000       0.22257000       3.11016000      -0.17295300       4.89916800      -3.86478000      -0.30736543       4.77063309      -3.97904172
Si       7.35363000       3.38410000       6.13231000       4.40786200       1.27045000       2.62604800       4.35584271       1.39774495       2.98469759
54
Lattice="8.579999685 0.0 0.0 0.0 8.579999685 0.0 0.0 0.0 8.5799996" Properties=species:S:1:pos:R:3:REF_forces:R:3:MACE_forces:R:3 config_type=Fe34B10Si10 REF_energy=-354.71875992 MACE_energy=-355.3873346524426 pbc="T T T"
Fe       0.43313000       1.19321000       2.96848000       1.47291300       2.99028000       0.61180900       1.61838564       2.98033375       0.31930580
Fe       0.91365000       1.12516000       8.09995000       2.76260400      -2.00335600       1.20968300       2.57143991      -2.13422446       1.11724075
Fe       1.17142000       2.67870000       5.23446000      -1.90323000       6.04651700       0.58026800      -1.68756132       6.28743750       0.61584555
Fe       0.60772000       3.85484000       0.87278000       2.66909500       4.89444800       4.53699300       2.66436091       5.10323605       4.23845584
Fe       1.41565000       3.44858000       3.01161000      -0.29549500       2.03729500      -0.74017400      -0.28149684       1.93130577      -0.67679773
Fe       0.04226000       2.91249000       8.09734000      -3.39897200      -2.84207300      -2.69442200      -3.09501276      -2.75367313      -2.48658326
Fe       1.33282000       7.09057000       5.22634000      -0.45239700      -1.35392500       0.92503500      -0.21673123      -1.50618683       0.82127412
Fe       2.06045000       7.92051000       0.98063000      -3.11321000      -0.30108300      -2.49280600      -3.24280779      -0.53311205      -2.32719959
Fe       2.03627000       8.24295000       3.50701000      -1.42216600       4.38122900       0.88517600      -1.52772544       4.19548355       0.55496534
Fe       0.01253000       8.02686000       7.00667000       2.58679700       0.98610200     -11.80201700       2.50642259       0.83096539     -11.93992214
Fe       3.00353000       0.57289000       6.13981000      -1.03922300       0.18357300       0.93137300      -0.71178560      -0.02201199       1.08464686
Fe       3.69949000       2.65196000       7.51811000       2.76433000      -4.34399200      -3.80269000       2.57531485      -4.15457438      -3.66266473
Fe       2.94478000       6.44154000       3.03987000       7.21319500      -3.66655800      -1.17614100       7.12110304      -3.36877505      -0.92817147
Fe       2.94309000       5.75189000       6.64956000      -6.24071800      -0.74678300       3.86021800      -6.57487839      -0.75725058       3.87955569
Fe       3.71160000       8.39321000       1.86324000       2.24845700      -0.43546600       0.28887200       2.36635184      -0.25119466       0.54137363
Fe       4.07810000       8.43915000       4.32840000       2.88035800       1.28304800      -0.49181300       2.93625496       1.47937092      -0.80524425
Fe       5.57499000       0.73262000       6.31633000      -3.12774100      -1.68249800      -0.98058200      -2.95920667      -1.73517259      -1.02840157
Fe       4.70712000       1.94493000       1.65492000      -2.04675700       4.97917500      -3.67899600      -2.14619906       4.82866965      -3.39511410
Fe       4.73401000       4.18392000       1.24748000       0.71501700       1.80608500      -0.06999200       0.70001640       1.99519116      -0.15314176
Fe       4.56687000       4.22266000       4.39618000       0.73801700       3.32591500      -2.10569900       0.59512852       3.47419589      -2.30598279
Fe       4.51224000       4.61167000       7.05684000       2.53211900      -0.41024200       0.53825400       2.98062040      -0.68598519       0.64452405
Fe       6.32808000       6.81945000       4.24288000      -3.20445400      -0.33519400      -1.28892300      -2.84933401      -0.28912845      -1.07509039
Fe       6.22240000       7.17309000       0.16230000      -3.30904600      -2.75215800       1.90373500      -3.54665166      -2.98264082       1.93224076
Fe       4.54224000       7.44382000       7.03838000       0.17895600      -5.02037800      -8.74618400       0.15445342      -5.29481824      -8.84714493
Fe       4.73272000       8.55832000       8.35561000      -0.10588400       8.96287400       6.54083400      -0.24902668       9.44649386       6.37174127
Fe       7.67285000       2.82429000       2.17742000      -2.12886900      -0.76272600      -2.06587500      -2.12439427      -0.72111979      -1.92564213
Fe       6.74071000       1.77406000       4.33655000       0.47479500       0.50025500      -0.42349800       0.13635823       0.52157676      -0.54881611
Fe       7.16362000       1.61896000       6.68131000       5.11373900       1.83737400       0.70818800       4.93259137       1.66282173       0.63958534
Fe       6.73653000       4.13840000       7.84564000       0.19062300       0.32905600       3.59274800       0.35134462       0.46207686       3.67545162
Fe       6.61248000       5.35948000       2.44590000       0.96755600      -0.77403900      -0.47053600       0.90622467      -0.76393172      -0.40165479
Fe       8.39074000       4.95678000       4.82580000       0.50677700       3.21370700       1.22596300       0.56273325       3.15329150       1.08724215
Fe       6.62275000       6.29700000       6.29237000       0.91106900      -0.58785400       1.74696000       0.85293110      -0.46539922       1.52117395
Fe       8.00875000       8.14674000       2.12563000      -1.25903800      -1.94608200      -3.37077000      -0.86096147      -1.95849691      -3.54132771
Fe       7.96861000       8.10559000       4.08816000       1.24434400       0.03207600       4.40361200       0.67691213      -0.04021912       4.63053330
B        3.14587000       1.61638000       2.59818000      -3.96044800      -1.57388800      -2.24367700      -4.09926924      -1.54598995      -2.21874888
B        4.07212000       1.93087000       3.78701000       0.55534200       0.12762300      -3.25123200       0.40745098      -0.02674136      -3.36206671
B        2.24412000       1.90783000       4.05913000      -1.80380000      -9.70850100      -5.48536600      -1.84899385      -9.88779898      -5.58184956
B        2.90130000       3.06657000       4.45062000       2.48509300       7.60479000      -1.50334300       2.78440930       7.09660780      -1.37145176
B        2.82587000       3.80138000       5.80651000       0.21675600       2.27927400       3.92227300       0.27207560       2.13362524       3.95231346
B        2.60929000       5.04297000       1.66311000       0.12617300      -0.77075900      -0.46531300      -0.03122756      -0.94757063      -0.48599231
B        2.47198000       4.95014000       4.32601000      -0.76752800      -1.31946700       0.35153300      -0.91652629      -1.13861804       0.34820691
B        2.73354000       7.81887000       7.66829000      -1.47869400      -0.15377200       0.00458000      -1.42283568      -0.13145729       0.09629025
B        5.68071000       2.28134000       7.79544000      -0.95924500       0.41857400       1.11780500      -1.06029089       0.37505316       1.11515175
B        7.77536000       3.70665000       3.76574000      -0.44877700      -1.48394500      -0.38974400      -0.49305554      -1.38706591      -0.18020888
Si       0.79518000       0.92195000       5.77957000      -1.66645900      -4.94136200      -1.10925300      -1.64318152      -5.08380054      -0.91892487
Si       0.88055000       4.20706000       6.73551000       1.15626000       3.58432200      -0.32349000       1.12844132       3.70129948      -0.28896134
Si       1.15025000       6.44729000       2.43826000      -7.77651300      -1.83655100      -1.54918700      -7.82942644      -1.66185493      -1.74850973
Si       2.82820000       3.29548000       0.50208000      -4.05499500       1.58525200       5.32597100      -4.12401452       1.39884698       5.18321057
Si       4.14031000       6.38272000       0.30005000      -2.16949800      -2.44928300       2.57761000      -2.30696075      -2.37709279       2.44660073
Si       3.68345000       6.43010000       5.01209000       3.98893100       0.98565200      -2.13453700       3.91877695       1.19549146      -2.03344185
Si       5.73751000       0.59059000       2.53265000       5.08228400      -4.90021500       2.23852200       5.18812283      -4.99010338       2.53118072
Si       4.51163000       2.47994000       5.36819000       2.60737700      -2.86786400       7.12589500       2.73350129      -2.59074345       7.29836779
Si       6.43436000       3.75222000       5.86206000       1.38008400       0.66155200      -3.64612400       1.49891794       0.67978095      -3.77966748
Si       8.06432000       7.52318000       8.55473000       2.36409700      -3.06603600      11.34847700       2.70891141      -2.74640300      11.37224460
18
Lattice="6.5 0.0 0.0 0.0 6.5 0.0 0.0 0.0 6.5" Properties=species:S:1:pos:R:3:REF_forces:R:3:MACE_forces:R:3 config_type=Fe12B3Si3 REF_energy=-113.87843945 MACE_energy=-112.45275178230614 pbc="T T T"
Fe       5.40234000       5.43492000       1.53729000      -1.39532100       2.04028400       0.71142300      -1.16876554       2.04833718       0.79013999
Fe       2.09750000       2.10361000       0.54730000       2.35673700      -0.33103000       1.27254800       2.72327721      -0.24264668       1.37886398
Fe       2.84360000       1.73250000       3.81271000       2.28004000      -1.18251600      -0.27344700       2.25629539      -1.09143736      -0.32619237
Fe       0.77541000       4.93717000       1.04317000       1.56096300      -3.83372900       1.76362000       1.54548285      -3.66772760       1.57184017
Fe       0.07665000       3.70431000       3.74351000      -0.75952900      -0.39175400      -2.23189700      -0.88387113      -0.47623621      -2.36561505
Fe       4.77171000       3.58949000       4.78220000      -1.99219600      -4.62409700       0.48420500      -1.80096439      -4.54640812       0.44373920
Fe       4.12430000       1.49867000       1.46476000       0.29771700      -2.38794700       0.28396300       0.36166591      -2.68709411       0.15593557
Fe       0.95387000       5.17746000       5.28728000      -0.57085000      -0.50160400      -1.80733600      -0.82957096      -0.67785706      -1.37207448
Fe       1.93602000       3.09888000       2.36598000      -0.08855100       0.43128300      -0.27209000      -0.24291374       0.57405344      -0.37689615
Fe       5.69037000       1.28357000       4.20026000      -0.40866000      -0.49067900       0.18976600      -0.69195316      -0.35925623       0.24668699
Fe       1.94321000       2.86141000       5.39871000      -0.55906500       0.73218900      -1.80086600      -0.68492977       1.11465691      -2.19925969
Fe       4.33122000       5.38124000       5.25469000      -0.73272900       4.56545400       1.52017900      -0.62047893       4.49362119       1.58924424
B        0.37598000       1.64060000       1.21420000      -3.21263000       2.85095800       0.76078000      -3.19751328       2.76126114       1.04247116
B        1.88110000       4.04794000       3.96741000       2.48956600       2.45119300      -0.32261600       2.51669436       2.25447122      -0.28123439
B        3.63878000       0.94242000       5.41981000      -0.01444500       0.67937600       0.95779200       0.02739939       0.78815939       1.07585196
Si       1.19380000       0.26963000       0.19686000       0.54051800       0.24528300      -1.93219100       0.60425823      -0.01212082      -1.88783826
Si       4.57825000       3.47658000       1.16117000       0.15934200       1.26766700      -0.81102600       0.21158200       1.35388379      -0.75566046
Si       1.09558000       0.76720000       2.75124000       0.04909300      -1.52033200       1.50719200      -0.12569444      -1.62766005       1.26999759
54
Lattice="8.579999685 0.0 0.0 0.0 8.579999685 0.0 0.0 0.0 8.5799996" Properties=species:S:1:pos:R:3:REF_forces:R:3:MACE_forces:R:3 config_type=Fe34B10Si10 REF_energy=-356.0869274 MACE_energy=-357.13555079255764 pbc="T T T"
Fe       0.92877000       1.08311000       2.12831000      -0.53214900      -1.15432400       0.53007800      -0.63087038      -1.15558607       0.46670397
Fe       1.12794000       0.45096000       7.37327000      -2.86345100       2.18226700       1.45805300      -2.73290587       2.06819304       1.42098767
Fe       0.91289000       3.61082000       1.96264000      -1.66570100       0.50807500      -4.76654600      -1.58385721       0.12391851      -4.50207943
Fe       0.97242000       3.25012000       3.83975000      -0.85629000      -1.23507100      -0.91491200      -1.11415571      -1.06960294      -0.62360110
Fe       1.43574000       3.84332000       5.84621000      -1.94378300      -0.72872400       4.94145300      -2.04878108      -0.53034171       4.73259608
Fe       0.45897000       5.99881000       1.32384000       1.86679900       1.45939200      -0.33976700       1.67713041       1.45914191      -0.16081258
Fe       0.05714000       6.25044000       6.01250000       0.66851500      -0.88142700       1.67028200       0.61404817      -0.75154045       1.71758297
Fe       1.87526000       7.05991000       7.27744000      -5.90957000       6.81146600       5.95768600      -5.62492737       6.98236634       5.78367578
Fe       4.21220000       0.80536000       3.81626000       0.44958900      -1.97725700       0.54591300       0.53740363      -1.81366802       0.45386611
Fe       2.64196000       0.75311000       5.88605000       0.80305000      -0.92688600      -1.50973400       0.50734123      -1.08751941      -1.51738121
Fe       2.51735000       4.27963000       7.86001000      -0.17185400       2.88247300       0.00075600      -0.18533933       3.06254725       0.06281822
Fe       2.46175000       4.76211000       4.38544000       2.27245000       6.36429500      -0.60000700       2.29923542       6.36830423      -0.48484342
Fe       3.99132000       4.46692000       6.09268000      -0.21521200      -1.96607600      -0.25853400      -0.31776413      -2.18872780      -0.13652090
Fe       4.03283000       6.20484000       2.50717000       0.32509400      -1.83048700       1.07686200       0.36728974      -1.77985347       1.10738439
Fe       2.62183000       8.12097000       1.25125000      -5.45108600      -1.04608100      -0.88869000      -5.58631627      -1.10586921      -0.67585008
Fe       2.34208000       7.49949000       3.33705000      -1.45221900       0.10179900       1.96325000      -1.30011853       0.10306356       1.58420871
Fe       4.67554000       0.98699000       8.35162000       1.97529500       0.95938300       0.07305200       1.71020746       0.85433769       0.32228826
Fe       4.68615000       2.28426000       1.60336000       6.03713100       4.39249100       1.56082500       6.16736389       4.36372130       1.12055055
Fe       4.95897000       4.28949000       0.91503000       1.24258400       3.77490300      -1.07876200       0.79234881       3.54625156      -1.17372756
Fe       5.62605000       3.84953000       3.25301000      -4.56775200       3.43217100       2.09526400      -4.70909183       3.44484549       1.92360851
Fe       5.63153000       5.70233000       4.67966000       0.04558900       0.36352900      -0.74034800       0.11776921      -0.05182051      -0.59573657
Fe       5.00954000       6.14620000       6.89198000       4.51113600      -2.60361300       1.43664400       4.56400389      -2.56477764       1.28823872
Fe       5.34723000       7.32984000       0.56425000       3.41130600      -7.55812200      -7.44238600       3.23020945      -7.13678430      -7.10127510
Fe       4.57141000       8.20633000       1.67615000      -2.51651100       6.57056000       9.11650700      -2.32107825       6.18395946       8.81224596
Fe       5.67084000       7.83697000       6.02451000      -0.02983000       3.57151200       0.33120700      -0.05535461       3.67748106       0.46025556
Fe       7.65837000       1.05332000       0.64336000       1.95813700       2.93603900      -3.62028800       1.79793116       2.80883212      -3.40979105
Fe       7.23579000       1.49494000       3.62009000       0.88838800      -1.50203300       3.00240400       1.07142284      -1.50151299       3.00085873
Fe       6.96409000       1.59543000       6.70415000       0.40175100      -2.57633900      -0.54943900       0.44050225      -2.39069680      -0.47810323
Fe       6.97946000       3.05325000       2.27831000       3.01329100      -2.85779700      -7.80747400       2.63662974      -2.88092278      -7.41852470
Fe       7.05854000       3.62734000       7.13255000       0.94483300       2.42104600       2.56329500       0.99898895       2.28248932       2.36143715
Fe       7.47490000       4.49325000       0.92243000      -3.13561000       0.06366500       0.11142200      -2.80679566       0.40597255      -0.13158418
Fe       7.76499000       5.40883000       4.05655000       3.42051700      -2.49950500       1.10150300       3.61809381      -2.66413519       1.14560000
Fe       6.91686000       6.16423000       2.38917000      -4.34160700       0.52717700      -3.24358900      -4.36911088       0.85894400      -3.25143637
Fe       7.31773000       7.39473000       4.73130000      -1.41907300       3.06948200       1.38572900      -1.45358436       2.97990970       1.32708900
B        1.63947000       5.44017000       2.85377000      -1.37965300       1.67099600      -0.34434500      -1.43199320       1.75587128      -0.53608439
B        3.47444000       1.29905000       1.69513000      -6.04542900      -7.46227000      -1.52467000      -6.12787512      -6.97422374      -1.28858255
B        2.31673000       1.42955000       3.77944000      -1.85652800      -2.14982900       3.21956500      -1.83689253      -1.94081810       3.29356643
B        3.17088000       0.01260000       8.16689000      -2.14308300      -0.12737100      -3.63430700      -2.09378358       0.13103012      -3.46664172
B        2.48887000       2.23189000       2.44876000      -1.30373000       3.96631200      -0.94871100      -0.90873041       3.68633191      -1.23015168
B        3.55016000       3.21990000       0.17024000       2.13469500      -3.52588700       0.23974700       2.16004357      -3.59102720       0.38404714
B        3.12966000       3.07291000       4.24572000      -6.99085300       0.34377600      -0.16579100      -6.83497534       0.10453401      -0.17592907
B        2.38358000       5.95301000       6.34325000       2.25901800      -8.76611800      -6.31465800       2.11495697      -9.05966635      -6.42618364
B        4.46260000       2.62992000       4.23823000       7.08507900      -1.75449200       0.40993300       6.94547180      -1.82761766       0.36157096
B        7.51183000       3.59374000       3.85724000       1.49621300      -1.20378300       3.39561400       1.49650624      -1.01198548       3.23078766
Si       0.50050000       1.66927000       5.10425000      -1.02554400      -2.67263500       2.61432900      -0.78485425      -2.97724286       2.55647842
Si       0.41923000       4.50138000       8.15701000       0.82744200      -0.47721100      -2.57541600       1.11131785      -0.44057293      -2.75554257
Si       2.90131000       4.25049000       1.93860000       2.71957100       0.04497600      -0.88170100       2.69454324       0.00023253      -1.01941894
Si       3.74353000       6.85388000       5.19884000      -1.20766000       1.80214700      -2.20114300      -1.07508647       1.93672928      -2.07435336
Si       3.54209000       6.47938000       8.21357000      -0.45014500      -1.75854100       4.24377300      -0.57666776      -2.01618772       4.41148766
Si       4.55252000       1.74669000       6.40118000       0.28733400       0.20348600      -1.69136000       0.28728976       0.23078831      -1.65181367
Si       5.87020000       3.30923000       5.41310000       1.93974000       0.55942400      -1.14043100       1.68200986       0.82232377      -1.24358013
Si       6.68392000       0.09389000       2.07850000      -2.78148600      -1.30329400       2.70552900      -2.56403971      -1.24201586       2.85407498
Si       7.30980000       7.36953000       0.08595000       4.18267400      -0.22507900      -1.67891000       4.41319536      -0.37840862      -1.74910996
Si       8.41387000       7.50606000       2.97540000       5.08859000       1.78741200      -0.88875800       5.02169513       1.89100549      -0.90535040
54
Lattice="8.579999685 0.0 0.0 0.0 8.579999685 0.0 0.0 0.0 8.5799996" Properties=species:S:1:pos:R:3:REF_forces:R:3:MACE_forces:R:3 config_type=Fe34B10Si10 REF_energy=-359.84864784 MACE_energy=-360.46826830596444 pbc="T T T"
Fe       0.39531000       2.37288000       0.87042000       3.27925500       2.43832800      -1.60261100       3.17990710       2.62140902      -1.70317468
Fe       0.75383000       1.65209000       3.11094000       1.30783500      -0.34615400      -0.09267000       1.37341392      -0.70464488       0.04486482
Fe       1.33201000       3.79282000       7.26231000      -2.40668100      -1.18131200       0.32245500      -2.53634806      -1.18140322       0.20503351
Fe       0.64436000       4.41396000       2.97573000       2.42004200      -2.26182600       0.38963900       2.45838044      -2.06273101       0.21906430
Fe       0.14751000       6.42079000       3.51005000      -3.07002100       1.32407200      -2.30638400      -3.17478792       1.33022887      -2.48492126