54
Lattice="8.579999685 0.0 0.0 0.0 8.579999685 0.0 0.0 0.0 8.5799996" Properties=species:S:1:pos:R:3:REF_forces:R:3:MACE_forces:R:3 config_type=Fe34B10Si10 REF_energy=-352.89092233 MACE_energy=-353.11979315636194 pbc="T T T"
Fe       1.46495000       0.71583000       1.12880000       3.73230100      -3.41607500      -3.76209700       3.70551392      -3.48292536      -3.56484155
Fe       0.56244000       2.07917000       1.96452000      -3.31290700       4.06628900       2.54508600      -3.26514624       3.97417457       2.32591918
Fe       0.86636000       2.12990000       5.00906000     -10.85567700      -2.87102900      12.20968700     -10.91179056      -2.96332789      12.22218617
Fe       0.24697000       2.61233000       7.83061000      -0.37811800      -2.03816900      -0.08744800      -0.41514138      -1.92784754       0.05461171
Fe       0.35437000       4.66395000       8.16447000      -1.30300600       1.62250000       0.84662400      -1.34483495       1.66792950       0.79783242
Fe       0.83543000       8.00840000       3.01492000       5.54921000      -2.55787300       0.52513800       5.71029012      -2.54538943       0.41044082
Fe       2.03952000       7.84431000       6.63062000      -4.28706100       1.82495200      -1.68802900      -4.09959459       1.98200628      -1.64493806
Fe       3.34318000       0.11090000       2.96052000      -0.46571400      -0.35056300       0.37864800      -0.50140271      -0.22635930       0.47464154
Fe       3.26317000       2.11539000       1.48699000      -3.47884800      -0.03222100       0.61542300      -3.41415651      -0.30854499       0.17379369
Fe       4.14313000       2.75755000       3.31065000      -0.71378000      -2.73118300       1.93004800      -0.64007657      -2.45369324       1.91512727
Fe       2.55051000       2.67374000       7.19710000      -2.55215900      -0.93589000       1.77261600      -2.30826503      -1.12537436       1.73852098
Fe       3.61327000       2.86500000       5.46497000       1.55763200       0.20514300      -0.56676300       1.48700306       0.27747598      -0.32373645
Fe       2.62400000       4.72550000       1.39174000      -1.08585200      -1.19598700       0.59645400      -1.37340265      -0.97244277       0.69943205
Fe       2.20317000       5.21693000       3.87451000      -3.92870900      -4.38103900      -4.92199500      -3.88487196      -4.35999943      -4.98168768
Fe       3.93082000       4.37819000       8.08226000       1.07616800       0.44807800      -0.99700400       1.00181196       0.28521332      -0.95422691
Fe       2.44961000       7.01753000       1.08943000       0.32119000      -1.55635000       3.27006500       0.42434587      -1.60555760       3.28774479
Fe       3.02500000       6.15780000       5.08193000      -1.08486800       1.64126100       3.95415400      -0.58367243       1.66475267       4.06825343
Fe       5.77712000       0.44616000       0.16142000      -2.43333700       0.07175000       4.13474700      -2.48926450       0.43107192       4.24219736
Fe       5.66964000       0.14892000       2.95259000      -3.67617900       1.90971100       0.12919700      -3.69687302       1.64662009       0.33116705
Fe       5.39484000       2.66317000       1.55162000       4.08183700      -3.39937100       3.88213200       4.07199430      -3.67873658       4.06751408
Fe       5.91309000       3.40423000       8.31953000       8.90196200       5.48305700      -2.72562400       8.71027192       5.44034494      -2.69046109
Fe       4.96126000       4.63305000       3.41410000      -3.60269200      -2.00302700       2.25051900      -3.73168049      -2.21067398       2.42572747
Fe       5.11347000       6.81217000       1.78872000      -0.87770500       0.06714300      -1.61156800      -0.70843466       0.06308738      -1.57528869
Fe       5.00950000       6.45991000       8.24507000      -2.30619500      -0.19808200      -1.52355700      -2.32280517       0.01212237      -1.71382494
Fe       4.64263000       7.71190000       5.75084000       2.50156800       4.23919200      -1.55456800       2.57572922       4.31575058      -1.60985205
Fe       7.32285000       0.33022000       5.03535000      -0.99210900      -0.59745100       4.73628300      -1.02121169      -0.36350140       4.80606665
Fe       6.75330000       1.32958000       7.05071000       0.53851300       2.01290400       0.36400700       0.55454180       1.84306092       0.31186696
Fe       6.82686000       2.53028000       3.66692000      -0.08907100      -0.12987400      -0.26318300      -0.03816327      -0.20036761      -0.26325369
Fe       6.83617000       5.56618000       0.59386000       1.74434500       1.47371700      -3.32847200       1.83724432       1.64002486      -3.48074502
Fe       8.27091000       4.29855000       2.87718000       3.23308900       0.33980500       1.37352500       3.20780064       0.20444551       1.30833486
Fe       6.58774000       4.90718000       4.97515000      -1.87594500       0.58060600      -0.05143700      -2.12916348       0.64083383      -0.34615188
Fe       6.86773000       6.79187000       3.27473000       1.52763600      -2.76254700       0.67579100       1.39558047      -2.44651138       0.37954188
Fe       8.09083000       8.29691000       0.84396000      -4.18921500      -1.95965200       9.56442300      -4.15899032      -2.31594883       9.69087744
Fe       6.62133000       7.67903000       7.47205000      -3.65417600       1.51975600      -3.32990400      -3.90904818       1.22791287      -3.52655107
B        3.45077000       6.81738000       6.75435000       2.04131500      -2.79808300       3.80923700       1.92218379      -2.75682438       3.97246130
B        4.67436000       1.10514000       4.73414000       0.75036200       0.95391600      -0.52852700       0.82869541       0.90028770      -0.46311541
B        6.18153000       2.20088000       5.47737000      -4.49435700      -3.20609500      -2.27763700      -4.72139729      -3.16528739      -2.49462634
B        5.08133000       4.10197000       6.35983000       0.35152900       0.25548900      -0.65354500       0.55875083       0.34300884      -0.60105070
B        4.48663000       4.29393000       1.40792000      -0.27448100       1.04603100       0.21283300      -0.26556715       1.22128069       0.15127799
B        4.96286000       5.88068000       6.14703000       0.60492000      -1.85032800       0.29314600       0.59312387      -1.94069249       0.14032732
B        8.17242000       5.65216000       5.55863000       1.00443800       0.65677900      -0.69824300       1.03591229       0.71036443      -0.30632023
B        7.98743000       6.92663000       6.60530000       5.86774900       2.58695800      -4.05103700       5.84530511       2.42551367      -3.70225918
B        7.10769000       5.72812000       6.91109000      -2.33709700      -3.34606800       1.34633400      -2.25603604      -3.45541793       1.33051125
B        7.81665000       6.81498000       8.33858000       5.04350100      -2.41043400       0.97359300       5.17384255      -2.43225457       0.69837243
Si       0.06983000       0.14925000       7.74742000       4.12649000       2.60901100      -8.87608100       3.97585499       2.64875417      -8.88346093
Si       1.93337000       2.41223000       3.74634000      10.14534600       2.98113100     -12.18526000      10.24261656       3.10342858     -12.02052536
Si       0.75978000       6.02813000       1.69309000      -4.13401100      -0.74920300       1.02787300      -4.11735839      -0.88444841       1.01202290
Si       2.22023000       5.10313000       7.16329000      -1.58663400       1.19675500      -1.89967800      -1.78294304       1.14751222      -1.93930224
Si       3.27754000       8.17117000       8.35443000       4.04667900       4.58101600      -2.24829100       3.90596922       4.54360849      -2.44941337
Si       4.48145000       2.18337000       8.34202000      -5.72220500      -5.96162700      -4.99603400      -5.50595341      -5.82481658      -5.17635407
Si       6.36439000       4.54151000       2.12641000       2.28764700      -2.33178900       1.39384200       2.58893498      -2.24553733       1.28987485
Si       4.52267000       6.51460000       3.75633000       0.42177200       5.22743800       1.25328700       0.13700930       5.36530893       1.37082411
Si       7.68278000       0.22257000       3.11016000      -0.17295300       4.89916800      -3.86478000      -0.28551430       4.80249724      -3.98272070
Si       7.35363000       3.38410000       6.13231000       4.40786200       1.27045000       2.62604800       4.39243345       1.36408822       2.99723766
54
Lattice="8.579999685 0.0 0.0 0.0 8.579999685 0.0 0.0 0.0 8.5799996" Properties=species:S:1:pos:R:3:REF_forces:R:3:MACE_forces:R:3 config_type=Fe34B10Si10 REF_energy=-354.71875992 MACE_energy=-355.2102912453373 pbc="T T T"
Fe       0.43313000       1.19321000       2.96848000       1.47291300       2.99028000       0.61180900       1.63907086       2.99165194       0.35461998
Fe       0.91365000       1.12516000       8.09995000       2.76260400      -2.00335600       1.20968300       2.52747000      -2.09814028       1.10089797
Fe       1.17142000       2.67870000       5.23446000      -1.90323000       6.04651700       0.58026800      -1.67976124       6.30246454       0.60529016
Fe       0.60772000       3.85484000       0.87278000       2.66909500       4.89444800       4.53699300       2.67433749       5.15585805       4.24198864
Fe       1.41565000       3.44858000       3.01161000      -0.29549500       2.03729500      -0.74017400      -0.24989663       1.91640121      -0.68060638
Fe       0.04226000       2.91249000       8.09734000      -3.39897200      -2.84207300      -2.69442200      -3.03536073      -2.79414036      -2.45414046
Fe       1.33282000       7.09057000       5.22634000      -0.45239700      -1.35392500       0.92503500      -0.26371086      -1.50800655       0.84698217
Fe       2.06045000       7.92051000       0.98063000      -3.11321000      -0.30108300      -2.49280600      -3.26593641      -0.51834689      -2.34726769
Fe       2.03627000       8.24295000       3.50701000      -1.42216600       4.38122900       0.88517600      -1.56923291       4.20398639       0.56270155
Fe       0.01253000       8.02686000       7.00667000       2.58679700       0.98610200     -11.80201700       2.52504730       0.82548125     -11.92187567
Fe       3.00353000       0.57289000       6.13981000      -1.03922300       0.18357300       0.93137300      -0.72025710       0.00513120       1.09246845
Fe       3.69949000       2.65196000       7.51811000       2.76433000      -4.34399200      -3.80269000       2.57412018      -4.17826530      -3.66682781
Fe       2.94478000       6.44154000       3.03987000       7.21319500      -3.66655800      -1.17614100       7.16114114      -3.44050494      -0.97543857
Fe       2.94309000       5.75189000       6.64956000      -6.24071800      -0.74678300       3.86021800      -6.56336984      -0.72005323       3.93602376
Fe       3.71160000       8.39321000       1.86324000       2.24845700      -0.43546600       0.28887200       2.41294401      -0.25583529       0.54535655
Fe       4.07810000       8.43915000       4.32840000       2.88035800       1.28304800      -0.49181300       2.94603836       1.45321269      -0.79785844
Fe       5.57499000       0.73262000       6.31633000      -3.12774100      -1.68249800      -0.98058200      -2.92769067      -1.71395465      -1.03026126
Fe       4.70712000       1.94493000       1.65492000      -2.04675700       4.97917500      -3.67899600      -2.11603366       4.87578320      -3.43082920
Fe       4.73401000       4.18392000       1.24748000       0.71501700       1.80608500      -0.06999200       0.69161070       1.97800056      -0.13338188
Fe       4.56687000       4.22266000       4.39618000       0.73801700       3.32591500      -2.10569900       0.57826634       3.45421979      -2.28104597
Fe       4.51224000       4.61167000       7.05684000       2.53211900      -0.41024200       0.53825400       2.98969932      -0.69404297       0.61967849
Fe       6.32808000       6.81945000       4.24288000      -3.20445400      -0.33519400      -1.28892300      -2.84615521      -0.26867196      -1.08276784
Fe       6.22240000       7.17309000       0.16230000      -3.30904600      -2.75215800       1.90373500      -3.52171478      -2.99253595       1.98090553
Fe       4.54224000       7.44382000       7.03838000       0.17895600      -5.02037800      -8.74618400       0.15881280      -5.33000834      -8.83719649
Fe       4.73272000       8.55832000       8.35561000      -0.10588400       8.96287400       6.54083400      -0.25981586       9.39421609       6.31896663
Fe       7.67285000       2.82429000       2.17742000      -2.12886900      -0.76272600      -2.06587500      -2.13820049      -0.72487318      -1.91243388
Fe       6.74071000       1.77406000       4.33655000       0.47479500       0.50025500      -0.42349800       0.11397951       0.50459977      -0.51089012
Fe       7.16362000       1.61896000       6.68131000       5.11373900       1.83737400       0.70818800       4.89525982       1.65972804       0.63380540
Fe       6.73653000       4.13840000       7.84564000       0.19062300       0.32905600       3.59274800       0.35252578       0.46541660       3.67165616
Fe       6.61248000       5.35948000       2.44590000       0.96755600      -0.77403900      -0.47053600       0.87985843      -0.75426454      -0.42102873
Fe       8.39074000       4.95678000       4.82580000       0.50677700       3.21370700       1.22596300       0.57118450       3.16229121       1.08484036
Fe       6.62275000       6.29700000       6.29237000       0.91106900      -0.58785400       1.74696000       0.85112477      -0.48141940       1.53825007
Fe       8.00875000       8.14674000       2.12563000      -1.25903800      -1.94608200      -3.37077000      -0.87100179      -1.96544999      -3.56603727
Fe       7.96861000       8.10559000       4.08816000       1.24434400       0.03207600       4.40361200       0.65580709      -0.01991269       4.63684188
B        3.14587000       1.61638000       2.59818000      -3.96044800      -1.57388800      -2.24367700      -4.11287002      -1.54486554      -2.20688626
B        4.07212000       1.93087000       3.78701000       0.55534200       0.12762300      -3.25123200       0.38670481       0.02252526      -3.31356527
B        2.24412000       1.90783000       4.05913000      -1.80380000      -9.70850100      -5.48536600      -1.88932646      -9.91783348      -5.60041521
B        2.90130000       3.06657000       4.45062000       2.48509300       7.60479000      -1.50334300       2.78804088       7.19399599      -1.41696935
B        2.82587000       3.80138000       5.80651000       0.21675600       2.27927400       3.92227300       0.24295387       2.12645366       3.93243708
B        2.60929000       5.04297000       1.66311000       0.12617300      -0.77075900      -0.46531300      -0.02525934      -0.97283260      -0.48318222
B        2.47198000       4.95014000       4.32601000      -0.76752800      -1.31946700       0.35153300      -0.89110817      -1.18235987       0.39163380
B        2.73354000       7.81887000       7.66829000      -1.47869400      -0.15377200       0.00458000      -1.43491683      -0.14196036       0.09333088
B        5.68071000       2.28134000       7.79544000      -0.95924500       0.41857400       1.11780500      -1.04705941       0.36155571       1.12186930
B        7.77536000       3.70665000       3.76574000      -0.44877700      -1.48394500      -0.38974400      -0.48162096      -1.40553389      -0.19233288
Si       0.79518000       0.92195000       5.77957000      -1.66645900      -4.94136200      -1.10925300      -1.65933380      -5.05098800      -0.93681697
Si       0.88055000       4.20706000       6.73551000       1.15626000       3.58432200      -0.32349000       1.15431194       3.69886730      -0.31196917
Si       1.15025000       6.44729000       2.43826000      -7.77651300      -1.83655100      -1.54918700      -7.85605689      -1.70179756      -1.75780621
Si       2.82820000       3.29548000       0.50208000      -4.05499500       1.58525200       5.32597100      -4.13089764       1.41233825       5.25228433
Si       4.14031000       6.38272000       0.30005000      -2.16949800      -2.44928300       2.57761000      -2.30817562      -2.34890513       2.44895889
Si       3.68345000       6.43010000       5.01209000       3.98893100       0.98565200      -2.13453700       3.93219029       1.20883469      -2.07067088
Si       5.73751000       0.59059000       2.53265000       5.08228400      -4.90021500       2.23852200       5.18521280      -4.97409573       2.50689548
Si       4.51163000       2.47994000       5.36819000       2.60737700      -2.86786400       7.12589500       2.77026888      -2.59071100       7.28484502
Si       6.43436000       3.75222000       5.86206000       1.38008400       0.66155200      -3.64612400       1.50209682       0.66473773      -3.78898411
Si       8.06432000       7.52318000       8.55473000       2.36409700      -3.06603600      11.34847700       2.70468461      -2.74744143      11.32595767
18
Lattice="6.5 0.0 0.0 0.0 6.5 0.0 0.0 0.0 6.5" Properties=species:S:1:pos:R:3:REF_forces:R:3:MACE_forces:R:3 config_type=Fe12B3Si3 REF_energy=-113.87843945 MACE_energy=-112.31930025491988 pbc="T T T"
Fe       5.40234000       5.43492000       1.53729000      -1.39532100       2.04028400       0.71142300      -1.20658680       2.04529078       0.80003573
Fe       2.09750000       2.10361000       0.54730000       2.35673700      -0.33103000       1.27254800       2.64630337      -0.25540223       1.46640475
Fe       2.84360000       1.73250000       3.81271000       2.28004000      -1.18251600      -0.27344700       2.23522495      -1.05345600      -0.35443497
Fe       0.77541000       4.93717000       1.04317000       1.56096300      -3.83372900       1.76362000       1.52859461      -3.63643397       1.57372166
Fe       0.07665000       3.70431000       3.74351000      -0.75952900      -0.39175400      -2.23189700      -0.94040174      -0.48917617      -2.33087908
Fe       4.77171000       3.58949000       4.78220000      -1.99219600      -4.62409700       0.48420500      -1.76506812      -4.54762336       0.42406263
Fe       4.12430000       1.49867000       1.46476000       0.29771700      -2.38794700       0.28396300       0.33012175      -2.70185597       0.16214633
Fe       0.95387000       5.17746000       5.28728000      -0.57085000      -0.50160400      -1.80733600      -0.84030415      -0.68543069      -1.35076268
Fe       1.93602000       3.09888000       2.36598000      -0.08855100       0.43128300      -0.27209000      -0.23523423       0.55654371      -0.40851163
Fe       5.69037000       1.28357000       4.20026000      -0.40866000      -0.49067900       0.18976600      -0.74677047      -0.36010863       0.25870153
Fe       1.94321000       2.86141000       5.39871000      -0.55906500       0.73218900      -1.80086600      -0.62596942       1.00874107      -2.18251861
Fe       4.33122000       5.38124000       5.25469000      -0.73272900       4.56545400       1.52017900      -0.64114774       4.45656172       1.57532544
B        0.37598000       1.64060000       1.21420000      -3.21263000       2.85095800       0.76078000      -3.13000123       2.78852058       0.97305994
B        1.88110000       4.04794000       3.96741000       2.48956600       2.45119300      -0.32261600       2.55130044       2.34178084      -0.32255889
B        3.63878000       0.94242000       5.41981000      -0.01444500       0.67937600       0.95779200       0.07369079       0.77788546       1.08045369
Si       1.19380000       0.26963000       0.19686000       0.54051800       0.24528300      -1.93219100       0.62704567       0.01293852      -1.90539082
Si       4.57825000       3.47658000       1.16117000       0.15934200       1.26766700      -0.81102600       0.21939026       1.38489128      -0.76064971
Si       1.09558000       0.76720000       2.75124000       0.04909300      -1.52033200       1.50719200      -0.08018794      -1.64366692       1.30179469
54
Lattice="8.579999685 0.0 0.0 0.0 8.579999685 0.0 0.0 0.0 8.5799996" Properties=species:S:1:pos:R:3:REF_forces:R:3:MACE_forces:R:3 config_type=Fe34B10Si10 REF_energy=-356.0869274 MACE_energy=-356.91912876081295 pbc="T T T"
Fe       0.92877000       1.08311000       2.12831000      -0.53214900      -1.15432400       0.53007800      -0.64816741      -1.17858970       0.44185891
Fe       1.12794000       0.45096000       7.37327000      -2.86345100       2.18226700       1.45805300      -2.74450559       2.02515837       1.42424144
Fe       0.91289000       3.61082000       1.96264000      -1.66570100       0.50807500      -4.76654600      -1.57728601       0.19429043      -4.62418133
Fe       0.97242000       3.25012000       3.83975000      -0.85629000      -1.23507100      -0.91491200      -1.12979850      -1.09172046      -0.52315082
Fe       1.43574000       3.84332000       5.84621000      -1.94378300      -0.72872400       4.94145300      -2.06903140      -0.56341080       4.81258208
Fe       0.45897000       5.99881000       1.32384000       1.86679900       1.45939200      -0.33976700       1.68039193       1.47089316      -0.14841913
Fe       0.05714000       6.25044000       6.01250000       0.66851500      -0.88142700       1.67028200       0.61981916      -0.75197195       1.69499959
Fe       1.87526000       7.05991000       7.27744000      -5.90957000       6.81146600       5.95768600      -5.66203298       7.00775858       5.78483404
Fe       4.21220000       0.80536000       3.81626000       0.44958900      -1.97725700       0.54591300       0.53851505      -1.84148342       0.46161666
Fe       2.64196000       0.75311000       5.88605000       0.80305000      -0.92688600      -1.50973400       0.50928598      -1.08095961      -1.49076702
Fe       2.51735000       4.27963000       7.86001000      -0.17185400       2.88247300       0.00075600      -0.17582655       3.03257635       0.04460246
Fe       2.46175000       4.76211000       4.38544000       2.27245000       6.36429500      -0.60000700       2.34650126       6.38977126      -0.54788173
Fe       3.99132000       4.46692000       6.09268000      -0.21521200      -1.96607600      -0.25853400      -0.28820750      -2.20648032      -0.17608287
Fe       4.03283000       6.20484000       2.50717000       0.32509400      -1.83048700       1.07686200       0.41215367      -1.77193933       1.07882930
Fe       2.62183000       8.12097000       1.25125000      -5.45108600      -1.04608100      -0.88869000      -5.58968034      -1.11661925      -0.68202116
Fe       2.34208000       7.49949000       3.33705000      -1.45221900       0.10179900       1.96325000      -1.30523532       0.11256170       1.62503352
Fe       4.67554000       0.98699000       8.35162000       1.97529500       0.95938300       0.07305200       1.72901629       0.88106645       0.32585562
Fe       4.68615000       2.28426000       1.60336000       6.03713100       4.39249100       1.56082500       6.19666002       4.36361760       1.12236685
Fe       4.95897000       4.28949000       0.91503000       1.24258400       3.77490300      -1.07876200       0.79486877       3.58875371      -1.17591066
Fe       5.62605000       3.84953000       3.25301000      -4.56775200       3.43217100       2.09526400      -4.69416784       3.46906215       1.90980267
Fe       5.63153000       5.70233000       4.67966000       0.04558900       0.36352900      -0.74034800       0.09844534      -0.03654512      -0.58284213
Fe       5.00954000       6.14620000       6.89198000       4.51113600      -2.60361300       1.43664400       4.56236546      -2.51727600       1.32107337
Fe       5.34723000       7.32984000       0.56425000       3.41130600      -7.55812200      -7.44238600       3.32558724      -7.17144041      -7.17743387
Fe       4.57141000       8.20633000       1.67615000      -2.51651100       6.57056000       9.11650700      -2.44762496       6.17527954       8.88064269
Fe       5.67084000       7.83697000       6.02451000      -0.02983000       3.57151200       0.33120700      -0.05779677       3.68645131       0.43219243
Fe       7.65837000       1.05332000       0.64336000       1.95813700       2.93603900      -3.62028800       1.84164602       2.81730458      -3.44282358
Fe       7.23579000       1.49494000       3.62009000       0.88838800      -1.50203300       3.00240400       1.07098266      -1.50201461       3.00943455
Fe       6.96409000       1.59543000       6.70415000       0.40175100      -2.57633900      -0.54943900       0.43943513      -2.43002895      -0.50057145
Fe       6.97946000       3.05325000       2.27831000       3.01329100      -2.85779700      -7.80747400       2.63164340      -2.91482832      -7.39409806
Fe       7.05854000       3.62734000       7.13255000       0.94483300       2.42104600       2.56329500       1.00966963       2.34135386       2.37541526
Fe       7.47490000       4.49325000       0.92243000      -3.13561000       0.06366500       0.11142200      -2.81325690       0.40969682      -0.16154758
Fe       7.76499000       5.40883000       4.05655000       3.42051700      -2.49950500       1.10150300       3.58147814      -2.66459873       1.15262214
Fe       6.91686000       6.16423000       2.38917000      -4.34160700       0.52717700      -3.24358900      -4.35303037       0.84447286      -3.26773122
Fe       7.31773000       7.39473000       4.73130000      -1.41907300       3.06948200       1.38572900      -1.43180051       2.99147096       1.32467980
B        1.63947000       5.44017000       2.85377000      -1.37965300       1.67099600      -0.34434500      -1.45280115       1.72466995      -0.57478695
B        3.47444000       1.29905000       1.69513000      -6.04542900      -7.46227000      -1.52467000      -6.09638089      -6.97299587      -1.27268334
B        2.31673000       1.42955000       3.77944000      -1.85652800      -2.14982900       3.21956500      -1.81658209      -1.96071597       3.33919619
B        3.17088000       0.01260000       8.16689000      -2.14308300      -0.12737100      -3.63430700      -2.09877776       0.12911253      -3.49884290
B        2.48887000       2.23189000       2.44876000      -1.30373000       3.96631200      -0.94871100      -0.89872813       3.73462848      -1.24398802
B        3.55016000       3.21990000       0.17024000       2.13469500      -3.52588700       0.23974700       2.13436102      -3.56373202       0.37632923
B        3.12966000       3.07291000       4.24572000      -6.99085300       0.34377600      -0.16579100      -6.89963693       0.11520594      -0.17985891
B        2.38358000       5.95301000       6.34325000       2.25901800      -8.76611800      -6.31465800       2.11170439      -9.03449269      -6.40394725
B        4.46260000       2.62992000       4.23823000       7.08507900      -1.75449200       0.40993300       7.00537502      -1.83511772       0.36581667
B        7.51183000       3.59374000       3.85724000       1.49621300      -1.20378300       3.39561400       1.49537451      -1.02876498       3.22409694
Si       0.50050000       1.66927000       5.10425000      -1.02554400      -2.67263500       2.61432900      -0.78542200      -2.98821205       2.60271203
Si       0.41923000       4.50138000       8.15701000       0.82744200      -0.47721100      -2.57541600       1.08845270      -0.43673357      -2.76234786
Si       2.90131000       4.25049000       1.93860000       2.71957100       0.04497600      -0.88170100       2.71223850      -0.00533350      -1.03600764
Si       3.74353000       6.85388000       5.19884000      -1.20766000       1.80214700      -2.20114300      -1.08274244       1.92254784      -2.09748584
Si       3.54209000       6.47938000       8.21357000      -0.45014500      -1.75854100       4.24377300      -0.58484112      -2.02475389       4.42147831
Si       4.55252000       1.74669000       6.40118000       0.28733400       0.20348600      -1.69136000       0.27172857       0.19814546      -1.63394309
Si       5.87020000       3.30923000       5.41310000       1.93974000       0.55942400      -1.14043100       1.67938340       0.82984745      -1.18091572
Si       6.68392000       0.09389000       2.07850000      -2.78148600      -1.30329400       2.70552900      -2.57502489      -1.25060018       2.84733832
Si       7.30980000       7.36953000       0.08595000       4.18267400      -0.22507900      -1.67891000       4.36473561      -0.40409485      -1.75043893
Si       8.41387000       7.50606000       2.97540000       5.08859000       1.78741200      -0.88875800       5.02656750       1.88975694      -0.86894199
54
Lattice="8.579999685 0.0 0.0 0.0 8.579999685 0.0 0.0 0.0 8.5799996" Properties=species:S:1:pos:R:3:REF_forces:R:3:MACE_forces:R:3 config_type=Fe34B10Si10 REF_energy=-359.84864784 MACE_energy=-360.3041287299325 pbc="T T T"
Fe       0.39531000       2.37288000       0.87042000       3.27925500       2.43832800      -1.60261100       3.17328327       2.66575388      -1.71855326
Fe       0.75383000       1.65209000       3.11094000       1.30783500      -0.34615400      -0.09267000       1.33216460      -0.75779356       0.04364948
Fe       1.33201000       3.79282000       7.26231000      -2.40668100      -1.18131200       0.32245500      -2.53396107      -1.18958796       0.19491803
Fe       0.64436000       4.41396000       2.97573000       2.42004200      -2.26182600       0.38963900       2.47828304      -2.07675853       0.22180525
Fe       0.14751000       6.42079000       3.51005000      -3.07002100       1.32407200      -2.30638400      -3.16543770       1.35177429      -2.49827386