54
Lattice="8.579999685 0.0 0.0 0.0 8.579999685 0.0 0.0 0.0 8.5799996" Properties=species:S:1:pos:R:3:REF_forces:R:3:MACE_forces:R:3 config_type=Fe34B10Si10 REF_energy=-352.89092233 MACE_energy=-353.15011674408146 pbc="T T T"
Fe       1.46495000       0.71583000       1.12880000       3.73230100      -3.41607500      -3.76209700       3.66252150      -3.42116392      -3.50477181
Fe       0.56244000       2.07917000       1.96452000      -3.31290700       4.06628900       2.54508600      -3.28203716       3.93073257       2.24502939
Fe       0.86636000       2.12990000       5.00906000     -10.85567700      -2.87102900      12.20968700     -10.84100456      -2.92996560      12.15056918
Fe       0.24697000       2.61233000       7.83061000      -0.37811800      -2.03816900      -0.08744800      -0.40843086      -1.96303098       0.06799419
Fe       0.35437000       4.66395000       8.16447000      -1.30300600       1.62250000       0.84662400      -1.36068686       1.71398178       0.80339832
Fe       0.83543000       8.00840000       3.01492000       5.54921000      -2.55787300       0.52513800       5.70743268      -2.53217113       0.43695431
Fe       2.03952000       7.84431000       6.63062000      -4.28706100       1.82495200      -1.68802900      -4.15421933       2.02254512      -1.66326022
Fe       3.34318000       0.11090000       2.96052000      -0.46571400      -0.35056300       0.37864800      -0.51877960      -0.22259676       0.45630490
Fe       3.26317000       2.11539000       1.48699000      -3.47884800      -0.03222100       0.61542300      -3.35804760      -0.26317566       0.20651634
Fe       4.14313000       2.75755000       3.31065000      -0.71378000      -2.73118300       1.93004800      -0.61535049      -2.48296331       1.92515303
Fe       2.55051000       2.67374000       7.19710000      -2.55215900      -0.93589000       1.77261600      -2.28676324      -1.06758471       1.72462438
Fe       3.61327000       2.86500000       5.46497000       1.55763200       0.20514300      -0.56676300       1.48414370       0.27423339      -0.32766279
Fe       2.62400000       4.72550000       1.39174000      -1.08585200      -1.19598700       0.59645400      -1.40809010      -0.96621286       0.72210083
Fe       2.20317000       5.21693000       3.87451000      -3.92870900      -4.38103900      -4.92199500      -3.92580759      -4.33976974      -5.02982732
Fe       3.93082000       4.37819000       8.08226000       1.07616800       0.44807800      -0.99700400       0.96813485       0.26881844      -0.98144125
Fe       2.44961000       7.01753000       1.08943000       0.32119000      -1.55635000       3.27006500       0.39851932      -1.57819081       3.29125963
Fe       3.02500000       6.15780000       5.08193000      -1.08486800       1.64126100       3.95415400      -0.43496571       1.72011204       4.08478123
Fe       5.77712000       0.44616000       0.16142000      -2.43333700       0.07175000       4.13474700      -2.44717963       0.41709700       4.22551977
Fe       5.66964000       0.14892000       2.95259000      -3.67617900       1.90971100       0.12919700      -3.70330624       1.64123151       0.31729329
Fe       5.39484000       2.66317000       1.55162000       4.08183700      -3.39937100       3.88213200       4.05177356      -3.69540829       4.10400445
Fe       5.91309000       3.40423000       8.31953000       8.90196200       5.48305700      -2.72562400       8.66876305       5.35989814      -2.70098590
Fe       4.96126000       4.63305000       3.41410000      -3.60269200      -2.00302700       2.25051900      -3.73555829      -2.23232943       2.46621894
Fe       5.11347000       6.81217000       1.78872000      -0.87770500       0.06714300      -1.61156800      -0.73888570       0.08568660      -1.61231862
Fe       5.00950000       6.45991000       8.24507000      -2.30619500      -0.19808200      -1.52355700      -2.33736703       0.01791978      -1.77950083
Fe       4.64263000       7.71190000       5.75084000       2.50156800       4.23919200      -1.55456800       2.56117109       4.35972850      -1.65975632
Fe       7.32285000       0.33022000       5.03535000      -0.99210900      -0.59745100       4.73628300      -0.99105072      -0.34012627       4.77150733
Fe       6.75330000       1.32958000       7.05071000       0.53851300       2.01290400       0.36400700       0.51934891       1.84407897       0.37869012
Fe       6.82686000       2.53028000       3.66692000      -0.08907100      -0.12987400      -0.26318300      -0.01681501      -0.17798011      -0.22392059
Fe       6.83617000       5.56618000       0.59386000       1.74434500       1.47371700      -3.32847200       1.83811677       1.66458479      -3.52337625
Fe       8.27091000       4.29855000       2.87718000       3.23308900       0.33980500       1.37352500       3.17852884       0.16613166       1.32074989
Fe       6.58774000       4.90718000       4.97515000      -1.87594500       0.58060600      -0.05143700      -2.13808991       0.65774291      -0.42238767
Fe       6.86773000       6.79187000       3.27473000       1.52763600      -2.76254700       0.67579100       1.41113219      -2.48406173       0.34856887
Fe       8.09083000       8.29691000       0.84396000      -4.18921500      -1.95965200       9.56442300      -4.08255913      -2.28563189       9.61935744
Fe       6.62133000       7.67903000       7.47205000      -3.65417600       1.51975600      -3.32990400      -3.97578557       1.21918683      -3.47526495
B        3.45077000       6.81738000       6.75435000       2.04131500      -2.79808300       3.80923700       1.95784735      -2.84792308       4.02741815
B        4.67436000       1.10514000       4.73414000       0.75036200       0.95391600      -0.52852700       0.82749844       0.96168784      -0.45042614
B        6.18153000       2.20088000       5.47737000      -4.49435700      -3.20609500      -2.27763700      -4.73970738      -3.16980054      -2.53705310
B        5.08133000       4.10197000       6.35983000       0.35152900       0.25548900      -0.65354500       0.52334962       0.27037176      -0.54945582
B        4.48663000       4.29393000       1.40792000      -0.27448100       1.04603100       0.21283300      -0.26392177       1.23959089       0.13364886
B        4.96286000       5.88068000       6.14703000       0.60492000      -1.85032800       0.29314600       0.55145342      -1.94915856       0.15461909
B        8.17242000       5.65216000       5.55863000       1.00443800       0.65677900      -0.69824300       1.09169023       0.63487414      -0.32228039
B        7.98743000       6.92663000       6.60530000       5.86774900       2.58695800      -4.05103700       5.82992525       2.38339927      -3.57272913
B        7.10769000       5.72812000       6.91109000      -2.33709700      -3.34606800       1.34633400      -2.21411174      -3.39452353       1.42659505
B        7.81665000       6.81498000       8.33858000       5.04350100      -2.41043400       0.97359300       5.11938662      -2.47471076       0.63551740
Si       0.06983000       0.14925000       7.74742000       4.12649000       2.60901100      -8.87608100       4.00315275       2.62929378      -8.83106910
Si       1.93337000       2.41223000       3.74634000      10.14534600       2.98113100     -12.18526000      10.16719199       3.03401152     -11.95101834
Si       0.75978000       6.02813000       1.69309000      -4.13401100      -0.74920300       1.02787300      -4.10159074      -0.87441623       0.96363929
Si       2.22023000       5.10313000       7.16329000      -1.58663400       1.19675500      -1.89967800      -1.74759468       1.12429866      -1.92875771
Si       3.27754000       8.17117000       8.35443000       4.04667900       4.58101600      -2.24829100       3.87848483       4.53995163      -2.38689377
Si       4.48145000       2.18337000       8.34202000      -5.72220500      -5.96162700      -4.99603400      -5.50492268      -5.80340029      -5.19596667
Si       6.36439000       4.54151000       2.12641000       2.28764700      -2.33178900       1.39384200       2.61974155      -2.20510259       1.28922895
Si       4.52267000       6.51460000       3.75633000       0.42177200       5.22743800       1.25328700       0.11422691       5.32106888       1.32591261
Si       7.68278000       0.22257000       3.11016000      -0.17295300       4.89916800      -3.86478000      -0.23950294       4.83646061      -3.96341131
Si       7.35363000       3.38410000       6.13231000       4.40786200       1.27045000       2.62604800       4.43859687       1.36267979       2.97036074
54
Lattice="8.579999685 0.0 0.0 0.0 8.579999685 0.0 0.0 0.0 8.5799996" Properties=species:S:1:pos:R:3:REF_forces:R:3:MACE_forces:R:3 config_type=Fe34B10Si10 REF_energy=-354.71875992 MACE_energy=-355.25912250835995 pbc="T T T"
Fe       0.43313000       1.19321000       2.96848000       1.47291300       2.99028000       0.61180900       1.61594237       2.98392818       0.38805166
Fe       0.91365000       1.12516000       8.09995000       2.76260400      -2.00335600       1.20968300       2.41392059      -1.89231504       1.07961643
Fe       1.17142000       2.67870000       5.23446000      -1.90323000       6.04651700       0.58026800      -1.68841785       6.21369315       0.58421736
Fe       0.60772000       3.85484000       0.87278000       2.66909500       4.89444800       4.53699300       2.64191202       5.11114966       4.16678821
Fe       1.41565000       3.44858000       3.01161000      -0.29549500       2.03729500      -0.74017400      -0.14735558       1.88379166      -0.70667602
Fe       0.04226000       2.91249000       8.09734000      -3.39897200      -2.84207300      -2.69442200      -2.88213068      -2.89624200      -2.35724932
Fe       1.33282000       7.09057000       5.22634000      -0.45239700      -1.35392500       0.92503500      -0.31636897      -1.48389357       0.90132372
Fe       2.06045000       7.92051000       0.98063000      -3.11321000      -0.30108300      -2.49280600      -3.27361278      -0.46991347      -2.36084814
Fe       2.03627000       8.24295000       3.50701000      -1.42216600       4.38122900       0.88517600      -1.59901975       4.15923746       0.56152904
Fe       0.01253000       8.02686000       7.00667000       2.58679700       0.98610200     -11.80201700       2.50851997       0.82603585     -11.93549321
Fe       3.00353000       0.57289000       6.13981000      -1.03922300       0.18357300       0.93137300      -0.74874835       0.05279866       1.08703433
Fe       3.69949000       2.65196000       7.51811000       2.76433000      -4.34399200      -3.80269000       2.57806841      -4.16891250      -3.66704699
Fe       2.94478000       6.44154000       3.03987000       7.21319500      -3.66655800      -1.17614100       7.09391566      -3.44257109      -1.04050505
Fe       2.94309000       5.75189000       6.64956000      -6.24071800      -0.74678300       3.86021800      -6.47220234      -0.70573977       3.96321557
Fe       3.71160000       8.39321000       1.86324000       2.24845700      -0.43546600       0.28887200       2.42102504      -0.21975208       0.57716955
Fe       4.07810000       8.43915000       4.32840000       2.88035800       1.28304800      -0.49181300       2.94535673       1.37199009      -0.80808218
Fe       5.57499000       0.73262000       6.31633000      -3.12774100      -1.68249800      -0.98058200      -2.80788758      -1.72341792      -0.98177913
Fe       4.70712000       1.94493000       1.65492000      -2.04675700       4.97917500      -3.67899600      -2.04519136       4.83154850      -3.48363180
Fe       4.73401000       4.18392000       1.24748000       0.71501700       1.80608500      -0.06999200       0.70102175       1.92746263      -0.12438680
Fe       4.56687000       4.22266000       4.39618000       0.73801700       3.32591500      -2.10569900       0.56106696       3.38748954      -2.24462363
Fe       4.51224000       4.61167000       7.05684000       2.53211900      -0.41024200       0.53825400       2.96938031      -0.67715727       0.58630333
Fe       6.32808000       6.81945000       4.24288000      -3.20445400      -0.33519400      -1.28892300      -2.81769834      -0.22803426      -1.08059293
Fe       6.22240000       7.17309000       0.16230000      -3.30904600      -2.75215800       1.90373500      -3.43925142      -2.98048549       2.00820512
Fe       4.54224000       7.44382000       7.03838000       0.17895600      -5.02037800      -8.74618400       0.25023333      -5.22835006      -8.71858736
Fe       4.73272000       8.55832000       8.35561000      -0.10588400       8.96287400       6.54083400      -0.29844476       9.23331715       6.10595325
Fe       7.67285000       2.82429000       2.17742000      -2.12886900      -0.76272600      -2.06587500      -2.14867180      -0.76729835      -1.92155604
Fe       6.74071000       1.77406000       4.33655000       0.47479500       0.50025500      -0.42349800       0.09977471       0.43881382      -0.48545473
Fe       7.16362000       1.61896000       6.68131000       5.11373900       1.83737400       0.70818800       4.75861776       1.61038305       0.62810021
Fe       6.73653000       4.13840000       7.84564000       0.19062300       0.32905600       3.59274800       0.27112673       0.44772841       3.61495183
Fe       6.61248000       5.35948000       2.44590000       0.96755600      -0.77403900      -0.47053600       0.86814153      -0.75571542      -0.44880452
Fe       8.39074000       4.95678000       4.82580000       0.50677700       3.21370700       1.22596300       0.56962209       3.18590556       1.08644164
Fe       6.62275000       6.29700000       6.29237000       0.91106900      -0.58785400       1.74696000       0.85487729      -0.47816532       1.57567676
Fe       8.00875000       8.14674000       2.12563000      -1.25903800      -1.94608200      -3.37077000      -0.88814814      -1.93457993      -3.51394233
Fe       7.96861000       8.10559000       4.08816000       1.24434400       0.03207600       4.40361200       0.65643537      -0.00123879       4.62920951
B        3.14587000       1.61638000       2.59818000      -3.96044800      -1.57388800      -2.24367700      -4.10911743      -1.55298552      -2.20073250
B        4.07212000       1.93087000       3.78701000       0.55534200       0.12762300      -3.25123200       0.38167063       0.08183196      -3.25722437
B        2.24412000       1.90783000       4.05913000      -1.80380000      -9.70850100      -5.48536600      -2.00288207     -10.02486344      -5.59091624
B        2.90130000       3.06657000       4.45062000       2.48509300       7.60479000      -1.50334300       2.83723046       7.34572892      -1.43710864
B        2.82587000       3.80138000       5.80651000       0.21675600       2.27927400       3.92227300       0.22336302       2.15464236       3.95398338
B        2.60929000       5.04297000       1.66311000       0.12617300      -0.77075900      -0.46531300       0.00603675      -0.98990358      -0.50050173
B        2.47198000       4.95014000       4.32601000      -0.76752800      -1.31946700       0.35153300      -0.87006520      -1.20169475       0.44607776
B        2.73354000       7.81887000       7.66829000      -1.47869400      -0.15377200       0.00458000      -1.49468884      -0.16478465       0.09849311
B        5.68071000       2.28134000       7.79544000      -0.95924500       0.41857400       1.11780500      -1.03521585       0.40640839       1.11042495
B        7.77536000       3.70665000       3.76574000      -0.44877700      -1.48394500      -0.38974400      -0.48240740      -1.42535173      -0.18769187
Si       0.79518000       0.92195000       5.77957000      -1.66645900      -4.94136200      -1.10925300      -1.63479696      -4.95013080      -0.96347457
Si       0.88055000       4.20706000       6.73551000       1.15626000       3.58432200      -0.32349000       1.10523548       3.65286102      -0.30376951
Si       1.15025000       6.44729000       2.43826000      -7.77651300      -1.83655100      -1.54918700      -7.78553681      -1.72599533      -1.73468202
Si       2.82820000       3.29548000       0.50208000      -4.05499500       1.58525200       5.32597100      -4.10292025       1.43594444       5.29802311
Si       4.14031000       6.38272000       0.30005000      -2.16949800      -2.44928300       2.57761000      -2.31196083      -2.31677087       2.45447978
Si       3.68345000       6.43010000       5.01209000       3.98893100       0.98565200      -2.13453700       3.92872810       1.22337223      -2.09481711
Si       5.73751000       0.59059000       2.53265000       5.08228400      -4.90021500       2.23852200       5.13708131      -4.88813006       2.46582657
Si       4.51163000       2.47994000       5.36819000       2.60737700      -2.86786400       7.12589500       2.84218472      -2.57930578       7.27944415
Si       6.43436000       3.75222000       5.86206000       1.38008400       0.66155200      -3.64612400       1.50306674       0.65940629      -3.75284135
Si       8.06432000       7.52318000       8.55473000       2.36409700      -3.06603600      11.34847700       2.65918550      -2.75177011      11.25247979
18
Lattice="6.5 0.0 0.0 0.0 6.5 0.0 0.0 0.0 6.5" Properties=species:S:1:pos:R:3:REF_forces:R:3:MACE_forces:R:3 config_type=Fe12B3Si3 REF_energy=-113.87843945 MACE_energy=-112.25880996473896 pbc="T T T"
Fe       5.40234000       5.43492000       1.53729000      -1.39532100       2.04028400       0.71142300      -1.17520173       1.97260447       0.76270763
Fe       2.09750000       2.10361000       0.54730000       2.35673700      -0.33103000       1.27254800       2.58563488      -0.17852423       1.50194224
Fe       2.84360000       1.73250000       3.81271000       2.28004000      -1.18251600      -0.27344700       2.21174685      -0.98813700      -0.30389935
Fe       0.77541000       4.93717000       1.04317000       1.56096300      -3.83372900       1.76362000       1.40380660      -3.55908358       1.57840123
Fe       0.07665000       3.70431000       3.74351000      -0.75952900      -0.39175400      -2.23189700      -1.10111808      -0.51973858      -2.30396516
Fe       4.77171000       3.58949000       4.78220000      -1.99219600      -4.62409700       0.48420500      -1.71621542      -4.54485766       0.38573746
Fe       4.12430000       1.49867000       1.46476000       0.29771700      -2.38794700       0.28396300       0.26522543      -2.70345308       0.16164358
Fe       0.95387000       5.17746000       5.28728000      -0.57085000      -0.50160400      -1.80733600      -0.86047978      -0.65446458      -1.32210452
Fe       1.93602000       3.09888000       2.36598000      -0.08855100       0.43128300      -0.27209000      -0.24558966       0.46601726      -0.57476132
Fe       5.69037000       1.28357000       4.20026000      -0.40866000      -0.49067900       0.18976600      -0.80938975      -0.37279785       0.25433485
Fe       1.94321000       2.86141000       5.39871000      -0.55906500       0.73218900      -1.80086600      -0.51241795       0.77700248      -2.04819746
Fe       4.33122000       5.38124000       5.25469000      -0.73272900       4.56545400       1.52017900      -0.61499847       4.39451903       1.58160980
B        0.37598000       1.64060000       1.21420000      -3.21263000       2.85095800       0.76078000      -3.05816502       2.82441882       0.83217684
B        1.88110000       4.04794000       3.96741000       2.48956600       2.45119300      -0.32261600       2.63271674       2.42019742      -0.30341547
B        3.63878000       0.94242000       5.41981000      -0.01444500       0.67937600       0.95779200       0.10622044       0.77786587       1.04128969
Si       1.19380000       0.26963000       0.19686000       0.54051800       0.24528300      -1.93219100       0.64611237       0.09208970      -1.86888304
Si       4.57825000       3.47658000       1.16117000       0.15934200       1.26766700      -0.81102600       0.24141042       1.45838202      -0.75570639
Si       1.09558000       0.76720000       2.75124000       0.04909300      -1.52033200       1.50719200       0.00070213      -1.66204050       1.38108939
54
Lattice="8.579999685 0.0 0.0 0.0 8.579999685 0.0 0.0 0.0 8.5799996" Properties=species:S:1:pos:R:3:REF_forces:R:3:MACE_forces:R:3 config_type=Fe34B10Si10 REF_energy=-356.0869274 MACE_energy=-356.9276013540673 pbc="T T T"
Fe       0.92877000       1.08311000       2.12831000      -0.53214900      -1.15432400       0.53007800      -0.69877044      -1.18160253       0.39633985
Fe       1.12794000       0.45096000       7.37327000      -2.86345100       2.18226700       1.45805300      -2.75648976       1.97633748       1.40225419
Fe       0.91289000       3.61082000       1.96264000      -1.66570100       0.50807500      -4.76654600      -1.62197819       0.29251048      -4.77455149
Fe       0.97242000       3.25012000       3.83975000      -0.85629000      -1.23507100      -0.91491200      -1.18287737      -1.15830773      -0.32361668
Fe       1.43574000       3.84332000       5.84621000      -1.94378300      -0.72872400       4.94145300      -2.06881060      -0.60090403       4.84915570
Fe       0.45897000       5.99881000       1.32384000       1.86679900       1.45939200      -0.33976700       1.71468366       1.48739590      -0.13532725
Fe       0.05714000       6.25044000       6.01250000       0.66851500      -0.88142700       1.67028200       0.59182225      -0.74889054       1.64808391
Fe       1.87526000       7.05991000       7.27744000      -5.90957000       6.81146600       5.95768600      -5.69382739       7.09621528       5.88584371
Fe       4.21220000       0.80536000       3.81626000       0.44958900      -1.97725700       0.54591300       0.54202206      -1.90597855       0.44853417
Fe       2.64196000       0.75311000       5.88605000       0.80305000      -0.92688600      -1.50973400       0.47995216      -1.06550759      -1.43721073
Fe       2.51735000       4.27963000       7.86001000      -0.17185400       2.88247300       0.00075600      -0.14448043       2.95486416       0.05223176
Fe       2.46175000       4.76211000       4.38544000       2.27245000       6.36429500      -0.60000700       2.32539400       6.39767291      -0.62025817
Fe       3.99132000       4.46692000       6.09268000      -0.21521200      -1.96607600      -0.25853400      -0.24088590      -2.22056638      -0.19918007
Fe       4.03283000       6.20484000       2.50717000       0.32509400      -1.83048700       1.07686200       0.47148134      -1.75564254       1.03016185
Fe       2.62183000       8.12097000       1.25125000      -5.45108600      -1.04608100      -0.88869000      -5.50138943      -1.11205567      -0.68934943
Fe       2.34208000       7.49949000       3.33705000      -1.45221900       0.10179900       1.96325000      -1.31638219       0.09899320       1.67076988
Fe       4.67554000       0.98699000       8.35162000       1.97529500       0.95938300       0.07305200       1.73416637       0.94826504       0.25639179
Fe       4.68615000       2.28426000       1.60336000       6.03713100       4.39249100       1.56082500       6.27631764       4.33316490       1.04824309
Fe       4.95897000       4.28949000       0.91503000       1.24258400       3.77490300      -1.07876200       0.83584300       3.62908750      -1.18875146
Fe       5.62605000       3.84953000       3.25301000      -4.56775200       3.43217100       2.09526400      -4.57819371       3.48515238       1.87143904
Fe       5.63153000       5.70233000       4.67966000       0.04558900       0.36352900      -0.74034800       0.09845682      -0.01478655      -0.56755344
Fe       5.00954000       6.14620000       6.89198000       4.51113600      -2.60361300       1.43664400       4.54297359      -2.42697940       1.37410674
Fe       5.34723000       7.32984000       0.56425000       3.41130600      -7.55812200      -7.44238600       3.38121807      -7.04348003      -7.09649014
Fe       4.57141000       8.20633000       1.67615000      -2.51651100       6.57056000       9.11650700      -2.52632808       5.99915751       8.81314234
Fe       5.67084000       7.83697000       6.02451000      -0.02983000       3.57151200       0.33120700      -0.07286268       3.65489713       0.38759375
Fe       7.65837000       1.05332000       0.64336000       1.95813700       2.93603900      -3.62028800       1.83636208       2.83223621      -3.46058238
Fe       7.23579000       1.49494000       3.62009000       0.88838800      -1.50203300       3.00240400       1.01067796      -1.42016103       2.98298324
Fe       6.96409000       1.59543000       6.70415000       0.40175100      -2.57633900      -0.54943900       0.47268953      -2.49139688      -0.55772577
Fe       6.97946000       3.05325000       2.27831000       3.01329100      -2.85779700      -7.80747400       2.59554108      -2.99783283      -7.32701952
Fe       7.05854000       3.62734000       7.13255000       0.94483300       2.42104600       2.56329500       1.00515108       2.39931380       2.38605333
Fe       7.47490000       4.49325000       0.92243000      -3.13561000       0.06366500       0.11142200      -2.83285761       0.43923286      -0.13801647
Fe       7.76499000       5.40883000       4.05655000       3.42051700      -2.49950500       1.10150300       3.51141157      -2.62904138       1.13604902
Fe       6.91686000       6.16423000       2.38917000      -4.34160700       0.52717700      -3.24358900      -4.33328507       0.77101086      -3.23497087
Fe       7.31773000       7.39473000       4.73130000      -1.41907300       3.06948200       1.38572900      -1.40564626       2.96111019       1.34710854
B        1.63947000       5.44017000       2.85377000      -1.37965300       1.67099600      -0.34434500      -1.48939326       1.70281641      -0.58272882
B        3.47444000       1.29905000       1.69513000      -6.04542900      -7.46227000      -1.52467000      -6.06442013      -6.98311643      -1.20347877
B        2.31673000       1.42955000       3.77944000      -1.85652800      -2.14982900       3.21956500      -1.75314831      -1.98771767       3.40518185
B        3.17088000       0.01260000       8.16689000      -2.14308300      -0.12737100      -3.63430700      -2.04936057       0.13356296      -3.53813605
B        2.48887000       2.23189000       2.44876000      -1.30373000       3.96631200      -0.94871100      -0.93105168       3.85187813      -1.27121223
B        3.55016000       3.21990000       0.17024000       2.13469500      -3.52588700       0.23974700       2.11537742      -3.51661257       0.38316603
B        3.12966000       3.07291000       4.24572000      -6.99085300       0.34377600      -0.16579100      -7.04091876       0.17132314      -0.17429340
B        2.38358000       5.95301000       6.34325000       2.25901800      -8.76611800      -6.31465800       2.14433087      -9.08190997      -6.45123714
B        4.46260000       2.62992000       4.23823000       7.08507900      -1.75449200       0.40993300       7.11597230      -1.89770387       0.38272559
B        7.51183000       3.59374000       3.85724000       1.49621300      -1.20378300       3.39561400       1.50969539      -1.04735459       3.23950433
Si       0.50050000       1.66927000       5.10425000      -1.02554400      -2.67263500       2.61432900      -0.79643636      -2.97052089       2.63029606
Si       0.41923000       4.50138000       8.15701000       0.82744200      -0.47721100      -2.57541600       1.07149027      -0.41295750      -2.77329910
Si       2.90131000       4.25049000       1.93860000       2.71957100       0.04497600      -0.88170100       2.75539077      -0.01016791      -1.06676944
Si       3.74353000       6.85388000       5.19884000      -1.20766000       1.80214700      -2.20114300      -1.07627470       1.94253010      -2.11312813
Si       3.54209000       6.47938000       8.21357000      -0.45014500      -1.75854100       4.24377300      -0.61716889      -2.07400042       4.38217453
Si       4.55252000       1.74669000       6.40118000       0.28733400       0.20348600      -1.69136000       0.25056643       0.16032802      -1.57293047
Si       5.87020000       3.30923000       5.41310000       1.93974000       0.55942400      -1.14043100       1.67689143       0.82248071      -1.14183966
Si       6.68392000       0.09389000       2.07850000      -2.78148600      -1.30329400       2.70552900      -2.52224917      -1.22209817       2.81031470
Si       7.30980000       7.36953000       0.08595000       4.18267400      -0.22507900      -1.67891000       4.26962605      -0.44420578      -1.74962177
Si       8.41387000       7.50606000       2.97540000       5.08859000       1.78741200      -0.88875800       4.97998177       1.87996217      -0.83057011
54
Lattice="8.579999685 0.0 0.0 0.0 8.579999685 0.0 0.0 0.0 8.5799996" Properties=species:S:1:pos:R:3:REF_forces:R:3:MACE_forces:R:3 config_type=Fe34B10Si10 REF_energy=-359.84864784 MACE_energy=-360.34618001999024 pbc="T T T"
Fe       0.39531000       2.37288000       0.87042000       3.27925500       2.43832800      -1.60261100       3.15786799       2.68964135      -1.76050157
Fe       0.75383000       1.65209000       3.11094000       1.30783500      -0.34615400      -0.09267000       1.28860859      -0.80718112       0.06707915
Fe       1.33201000       3.79282000       7.26231000      -2.40668100      -1.18131200       0.32245500      -2.47457312      -1.18069843       0.23825619
Fe       0.64436000       4.41396000       2.97573000       2.42004200      -2.26182600       0.38963900       2.49326117      -2.06438493       0.25064692
Fe       0.14751000       6.42079000       3.51005000      -3.07002100       1.32407200      -2.30638400      -3.10253607       1.32863275      -2.42320971