54
Lattice="8.579999685 0.0 0.0 0.0 8.579999685 0.0 0.0 0.0 8.5799996" Properties=species:S:1:pos:R:3:REF_forces:R:3:MACE_forces:R:3 config_type=Fe34B10Si10 REF_energy=-352.89092233 MACE_energy=-353.31793513001173 pbc="T T T"
Fe       1.46495000       0.71583000       1.12880000       3.73230100      -3.41607500      -3.76209700       3.67809704      -3.51884881      -3.54322293
Fe       0.56244000       2.07917000       1.96452000      -3.31290700       4.06628900       2.54508600      -3.22185700       3.97129086       2.35235984
Fe       0.86636000       2.12990000       5.00906000     -10.85567700      -2.87102900      12.20968700     -10.94157651      -2.95182750      12.21829323
Fe       0.24697000       2.61233000       7.83061000      -0.37811800      -2.03816900      -0.08744800      -0.40916939      -1.89641093       0.08361674
Fe       0.35437000       4.66395000       8.16447000      -1.30300600       1.62250000       0.84662400      -1.33754859       1.60515138       0.77387593
Fe       0.83543000       8.00840000       3.01492000       5.54921000      -2.55787300       0.52513800       5.70646626      -2.53560851       0.38476851
Fe       2.03952000       7.84431000       6.63062000      -4.28706100       1.82495200      -1.68802900      -4.07294141       1.96057562      -1.64191344
Fe       3.34318000       0.11090000       2.96052000      -0.46571400      -0.35056300       0.37864800      -0.52278102      -0.22909614       0.46635924
Fe       3.26317000       2.11539000       1.48699000      -3.47884800      -0.03222100       0.61542300      -3.40782854      -0.29310376       0.17727574
Fe       4.14313000       2.75755000       3.31065000      -0.71378000      -2.73118300       1.93004800      -0.61568010      -2.39306690       1.85573886
Fe       2.55051000       2.67374000       7.19710000      -2.55215900      -0.93589000       1.77261600      -2.31011699      -1.14312942       1.71190982
Fe       3.61327000       2.86500000       5.46497000       1.55763200       0.20514300      -0.56676300       1.46142260       0.27449423      -0.27714077
Fe       2.62400000       4.72550000       1.39174000      -1.08585200      -1.19598700       0.59645400      -1.35086844      -1.01683847       0.69467056
Fe       2.20317000       5.21693000       3.87451000      -3.92870900      -4.38103900      -4.92199500      -3.85949734      -4.39617075      -4.98100137
Fe       3.93082000       4.37819000       8.08226000       1.07616800       0.44807800      -0.99700400       1.02684921       0.29823528      -0.92700623
Fe       2.44961000       7.01753000       1.08943000       0.32119000      -1.55635000       3.27006500       0.44861534      -1.62857144       3.26423531
Fe       3.02500000       6.15780000       5.08193000      -1.08486800       1.64126100       3.95415400      -0.63962627       1.65415161       4.05904920
Fe       5.77712000       0.44616000       0.16142000      -2.43333700       0.07175000       4.13474700      -2.47590101       0.40736724       4.21315985
Fe       5.66964000       0.14892000       2.95259000      -3.67617900       1.90971100       0.12919700      -3.64007429       1.64024695       0.32144209
Fe       5.39484000       2.66317000       1.55162000       4.08183700      -3.39937100       3.88213200       4.02524724      -3.64385327       4.03607505
Fe       5.91309000       3.40423000       8.31953000       8.90196200       5.48305700      -2.72562400       8.71590754       5.46358154      -2.70916431
Fe       4.96126000       4.63305000       3.41410000      -3.60269200      -2.00302700       2.25051900      -3.73868264      -2.21362851       2.36592478
Fe       5.11347000       6.81217000       1.78872000      -0.87770500       0.06714300      -1.61156800      -0.70502524       0.07971780      -1.56044555
Fe       5.00950000       6.45991000       8.24507000      -2.30619500      -0.19808200      -1.52355700      -2.27099808       0.02092742      -1.67634294
Fe       4.64263000       7.71190000       5.75084000       2.50156800       4.23919200      -1.55456800       2.61409999       4.26471895      -1.58714882
Fe       7.32285000       0.33022000       5.03535000      -0.99210900      -0.59745100       4.73628300      -1.02623708      -0.38500198       4.80742521
Fe       6.75330000       1.32958000       7.05071000       0.53851300       2.01290400       0.36400700       0.56520099       1.82471215       0.27990573
Fe       6.82686000       2.53028000       3.66692000      -0.08907100      -0.12987400      -0.26318300      -0.06210302      -0.21307386      -0.23862274
Fe       6.83617000       5.56618000       0.59386000       1.74434500       1.47371700      -3.32847200       1.81140402       1.62573916      -3.41020893
Fe       8.27091000       4.29855000       2.87718000       3.23308900       0.33980500       1.37352500       3.20849789       0.23547429       1.33043676
Fe       6.58774000       4.90718000       4.97515000      -1.87594500       0.58060600      -0.05143700      -2.11793374       0.60764372      -0.29007360
Fe       6.86773000       6.79187000       3.27473000       1.52763600      -2.76254700       0.67579100       1.39008288      -2.41549458       0.39365255
Fe       8.09083000       8.29691000       0.84396000      -4.18921500      -1.95965200       9.56442300      -4.19351239      -2.32423482       9.67592524
Fe       6.62133000       7.67903000       7.47205000      -3.65417600       1.51975600      -3.32990400      -3.89789878       1.24830583      -3.51587492
B        3.45077000       6.81738000       6.75435000       2.04131500      -2.79808300       3.80923700       1.91959215      -2.70480014       3.92987515
B        4.67436000       1.10514000       4.73414000       0.75036200       0.95391600      -0.52852700       0.82215521       0.87068271      -0.46234902
B        6.18153000       2.20088000       5.47737000      -4.49435700      -3.20609500      -2.27763700      -4.70218538      -3.14512507      -2.46490024
B        5.08133000       4.10197000       6.35983000       0.35152900       0.25548900      -0.65354500       0.57620464       0.33857100      -0.64216166
B        4.48663000       4.29393000       1.40792000      -0.27448100       1.04603100       0.21283300      -0.26221469       1.21608386       0.16873312
B        4.96286000       5.88068000       6.14703000       0.60492000      -1.85032800       0.29314600       0.63417578      -1.92776946       0.12780116
B        8.17242000       5.65216000       5.55863000       1.00443800       0.65677900      -0.69824300       1.01404378       0.73918493      -0.32439328
B        7.98743000       6.92663000       6.60530000       5.86774900       2.58695800      -4.05103700       5.84553060       2.50556469      -3.74863685
B        7.10769000       5.72812000       6.91109000      -2.33709700      -3.34606800       1.34633400      -2.32436978      -3.53140858       1.29127031
B        7.81665000       6.81498000       8.33858000       5.04350100      -2.41043400       0.97359300       5.16597221      -2.42567849       0.75318846
Si       0.06983000       0.14925000       7.74742000       4.12649000       2.60901100      -8.87608100       3.95118769       2.63654657      -8.85799241
Si       1.93337000       2.41223000       3.74634000      10.14534600       2.98113100     -12.18526000      10.23199649       3.10698631     -12.01728615
Si       0.75978000       6.02813000       1.69309000      -4.13401100      -0.74920300       1.02787300      -4.13598143      -0.87176234       1.03477454
Si       2.22023000       5.10313000       7.16329000      -1.58663400       1.19675500      -1.89967800      -1.78013847       1.17475840      -1.93559457
Si       3.27754000       8.17117000       8.35443000       4.04667900       4.58101600      -2.24829100       3.90201237       4.54216145      -2.46782285
Si       4.48145000       2.18337000       8.34202000      -5.72220500      -5.96162700      -4.99603400      -5.48362066      -5.82073784      -5.15068565
Si       6.36439000       4.54151000       2.12641000       2.28764700      -2.33178900       1.39384200       2.59153234      -2.23766543       1.25818862
Si       4.52267000       6.51460000       3.75633000       0.42177200       5.22743800       1.25328700       0.16342401       5.38264398       1.39963487
Si       7.68278000       0.22257000       3.11016000      -0.17295300       4.89916800      -3.86478000      -0.31135537       4.76641994      -3.98279562
Si       7.35363000       3.38410000       6.13231000       4.40786200       1.27045000       2.62604800       4.34800536       1.40096914       2.98321839
54
Lattice="8.579999685 0.0 0.0 0.0 8.579999685 0.0 0.0 0.0 8.5799996" Properties=species:S:1:pos:R:3:REF_forces:R:3:MACE_forces:R:3 config_type=Fe34B10Si10 REF_energy=-354.71875992 MACE_energy=-355.37134541726374 pbc="T T T"
Fe       0.43313000       1.19321000       2.96848000       1.47291300       2.99028000       0.61180900       1.61500520       2.98148675       0.31335946
Fe       0.91365000       1.12516000       8.09995000       2.76260400      -2.00335600       1.20968300       2.58074652      -2.14768945       1.12257138
Fe       1.17142000       2.67870000       5.23446000      -1.90323000       6.04651700       0.58026800      -1.68169155       6.29284950       0.61265450
Fe       0.60772000       3.85484000       0.87278000       2.66909500       4.89444800       4.53699300       2.66891346       5.09670000       4.24636466
Fe       1.41565000       3.44858000       3.01161000      -0.29549500       2.03729500      -0.74017400      -0.28856068       1.93088811      -0.67633369
Fe       0.04226000       2.91249000       8.09734000      -3.39897200      -2.84207300      -2.69442200      -3.11406164      -2.74974937      -2.49911509
Fe       1.33282000       7.09057000       5.22634000      -0.45239700      -1.35392500       0.92503500      -0.21158381      -1.50617885       0.81814212
Fe       2.06045000       7.92051000       0.98063000      -3.11321000      -0.30108300      -2.49280600      -3.24469229      -0.53507015      -2.32532221
Fe       2.03627000       8.24295000       3.50701000      -1.42216600       4.38122900       0.88517600      -1.52006178       4.19410398       0.55056247
Fe       0.01253000       8.02686000       7.00667000       2.58679700       0.98610200     -11.80201700       2.50482352       0.83212457     -11.94672885
Fe       3.00353000       0.57289000       6.13981000      -1.03922300       0.18357300       0.93137300      -0.71053339      -0.02426688       1.08458700
Fe       3.69949000       2.65196000       7.51811000       2.76433000      -4.34399200      -3.80269000       2.57474501      -4.15184448      -3.67148499
Fe       2.94478000       6.44154000       3.03987000       7.21319500      -3.66655800      -1.17614100       7.11666701      -3.35056991      -0.91762250
Fe       2.94309000       5.75189000       6.64956000      -6.24071800      -0.74678300       3.86021800      -6.58415889      -0.76092487       3.87548664
Fe       3.71160000       8.39321000       1.86324000       2.24845700      -0.43546600       0.28887200       2.36225063      -0.24900376       0.54182984
Fe       4.07810000       8.43915000       4.32840000       2.88035800       1.28304800      -0.49181300       2.93917862       1.48388000      -0.80836971
Fe       5.57499000       0.73262000       6.31633000      -3.12774100      -1.68249800      -0.98058200      -2.97181932      -1.73941513      -1.02730106
Fe       4.70712000       1.94493000       1.65492000      -2.04675700       4.97917500      -3.67899600      -2.14986026       4.82047442      -3.39246239
Fe       4.73401000       4.18392000       1.24748000       0.71501700       1.80608500      -0.06999200       0.70533260       1.99816215      -0.15551280
Fe       4.56687000       4.22266000       4.39618000       0.73801700       3.32591500      -2.10569900       0.60092806       3.47898010      -2.31096193
Fe       4.51224000       4.61167000       7.05684000       2.53211900      -0.41024200       0.53825400       2.98221789      -0.68873113       0.64638444
Fe       6.32808000       6.81945000       4.24288000      -3.20445400      -0.33519400      -1.28892300      -2.85391467      -0.29773479      -1.07928528
Fe       6.22240000       7.17309000       0.16230000      -3.30904600      -2.75215800       1.90373500      -3.55376231      -2.98223362       1.92167991
Fe       4.54224000       7.44382000       7.03838000       0.17895600      -5.02037800      -8.74618400       0.15905448      -5.28999004      -8.84996598
Fe       4.73272000       8.55832000       8.35561000      -0.10588400       8.96287400       6.54083400      -0.24812829       9.45963975       6.38960503
Fe       7.67285000       2.82429000       2.17742000      -2.12886900      -0.76272600      -2.06587500      -2.12110836      -0.71841765      -1.92884021
Fe       6.74071000       1.77406000       4.33655000       0.47479500       0.50025500      -0.42349800       0.14186049       0.52706603      -0.55441686
Fe       7.16362000       1.61896000       6.68131000       5.11373900       1.83737400       0.70818800       4.94628225       1.66420254       0.64192918
Fe       6.73653000       4.13840000       7.84564000       0.19062300       0.32905600       3.59274800       0.35138049       0.46185274       3.67866028
Fe       6.61248000       5.35948000       2.44590000       0.96755600      -0.77403900      -0.47053600       0.91045985      -0.76663682      -0.39598397
Fe       8.39074000       4.95678000       4.82580000       0.50677700       3.21370700       1.22596300       0.55837009       3.15301378       1.09208113
Fe       6.62275000       6.29700000       6.29237000       0.91106900      -0.58785400       1.74696000       0.85453698      -0.46457477       1.52374350
Fe       8.00875000       8.14674000       2.12563000      -1.25903800      -1.94608200      -3.37077000      -0.86143297      -1.95945386      -3.54465759
Fe       7.96861000       8.10559000       4.08816000       1.24434400       0.03207600       4.40361200       0.68538382      -0.04106862       4.63528775
B        3.14587000       1.61638000       2.59818000      -3.96044800      -1.57388800      -2.24367700      -4.10063934      -1.54964841      -2.21693040
B        4.07212000       1.93087000       3.78701000       0.55534200       0.12762300      -3.25123200       0.40880498      -0.03076251      -3.37565901
B        2.24412000       1.90783000       4.05913000      -1.80380000      -9.70850100      -5.48536600      -1.84203526      -9.88399901      -5.58383486
B        2.90130000       3.06657000       4.45062000       2.48509300       7.60479000      -1.50334300       2.78052699       7.07624914      -1.35981605
B        2.82587000       3.80138000       5.80651000       0.21675600       2.27927400       3.92227300       0.27880196       2.13655123       3.95806008
B        2.60929000       5.04297000       1.66311000       0.12617300      -0.77075900      -0.46531300      -0.03506136      -0.94614637      -0.48628201
B        2.47198000       4.95014000       4.32601000      -0.76752800      -1.31946700       0.35153300      -0.91847339      -1.13239742       0.34282932
B        2.73354000       7.81887000       7.66829000      -1.47869400      -0.15377200       0.00458000      -1.41988528      -0.13046158       0.09983289
B        5.68071000       2.28134000       7.79544000      -0.95924500       0.41857400       1.11780500      -1.05831441       0.37663017       1.11586211
B        7.77536000       3.70665000       3.76574000      -0.44877700      -1.48394500      -0.38974400      -0.49729159      -1.38503271      -0.18043354
Si       0.79518000       0.92195000       5.77957000      -1.66645900      -4.94136200      -1.10925300      -1.64321344      -5.09196566      -0.91553944
Si       0.88055000       4.20706000       6.73551000       1.15626000       3.58432200      -0.32349000       1.12632312       3.70568192      -0.28311771
Si       1.15025000       6.44729000       2.43826000      -7.77651300      -1.83655100      -1.54918700      -7.82755103      -1.65405895      -1.74823029
Si       2.82820000       3.29548000       0.50208000      -4.05499500       1.58525200       5.32597100      -4.12838778       1.39876837       5.17058566
Si       4.14031000       6.38272000       0.30005000      -2.16949800      -2.44928300       2.57761000      -2.30602895      -2.38365808       2.44368078
Si       3.68345000       6.43010000       5.01209000       3.98893100       0.98565200      -2.13453700       3.91691028       1.19106898      -2.03065380
Si       5.73751000       0.59059000       2.53265000       5.08228400      -4.90021500       2.23852200       5.19395098      -4.99639940       2.53676092
Si       4.51163000       2.47994000       5.36819000       2.60737700      -2.86786400       7.12589500       2.72531224      -2.58908711       7.30337452
Si       6.43436000       3.75222000       5.86206000       1.38008400       0.66155200      -3.64612400       1.49364923       0.68343029      -3.78118088
Si       8.06432000       7.52318000       8.55473000       2.36409700      -3.06603600      11.34847700       2.70983528      -2.74663318      11.38012756
18
Lattice="6.5 0.0 0.0 0.0 6.5 0.0 0.0 0.0 6.5" Properties=species:S:1:pos:R:3:REF_forces:R:3:MACE_forces:R:3 config_type=Fe12B3Si3 REF_energy=-113.87843945 MACE_energy=-112.47658930848928 pbc="T T T"
Fe       5.40234000       5.43492000       1.53729000      -1.39532100       2.04028400       0.71142300      -1.16191509       2.05097243       0.78741578
Fe       2.09750000       2.10361000       0.54730000       2.35673700      -0.33103000       1.27254800       2.74296881      -0.24162405       1.35958258
Fe       2.84360000       1.73250000       3.81271000       2.28004000      -1.18251600      -0.27344700       2.25987536      -1.09885880      -0.32308140
Fe       0.77541000       4.93717000       1.04317000       1.56096300      -3.83372900       1.76362000       1.54696973      -3.67596009       1.57382965
Fe       0.07665000       3.70431000       3.74351000      -0.75952900      -0.39175400      -2.23189700      -0.86412075      -0.47274502      -2.37391781
Fe       4.77171000       3.58949000       4.78220000      -1.99219600      -4.62409700       0.48420500      -1.81343393      -4.55006239       0.45084353
Fe       4.12430000       1.49867000       1.46476000       0.29771700      -2.38794700       0.28396300       0.36852847      -2.68690662       0.15231722
Fe       0.95387000       5.17746000       5.28728000      -0.57085000      -0.50160400      -1.80733600      -0.82075961      -0.67317573      -1.37629287
Fe       1.93602000       3.09888000       2.36598000      -0.08855100       0.43128300      -0.27209000      -0.24382149       0.58378058      -0.37244240
Fe       5.69037000       1.28357000       4.20026000      -0.40866000      -0.49067900       0.18976600      -0.67999100      -0.36431885       0.24306692
Fe       1.94321000       2.86141000       5.39871000      -0.55906500       0.73218900      -1.80086600      -0.69985725       1.14434364      -2.20501776
Fe       4.33122000       5.38124000       5.25469000      -0.73272900       4.56545400       1.52017900      -0.61880848       4.50315712       1.59262687
B        0.37598000       1.64060000       1.21420000      -3.21263000       2.85095800       0.76078000      -3.21603266       2.75225444       1.04762837
B        1.88110000       4.04794000       3.96741000       2.48956600       2.45119300      -0.32261600       2.51168801       2.23399714      -0.26584711
B        3.63878000       0.94242000       5.41981000      -0.01444500       0.67937600       0.95779200       0.02002840       0.78828860       1.08200754
Si       1.19380000       0.26963000       0.19686000       0.54051800       0.24528300      -1.93219100       0.59482295      -0.01454398      -1.88732065
Si       4.57825000       3.47658000       1.16117000       0.15934200       1.26766700      -0.81102600       0.20778287       1.34800621      -0.75723712
Si       1.09558000       0.76720000       2.75124000       0.04909300      -1.52033200       1.50719200      -0.13392434      -1.62660462       1.27183864
54
Lattice="8.579999685 0.0 0.0 0.0 8.579999685 0.0 0.0 0.0 8.5799996" Properties=species:S:1:pos:R:3:REF_forces:R:3:MACE_forces:R:3 config_type=Fe34B10Si10 REF_energy=-356.0869274 MACE_energy=-357.11249354271865 pbc="T T T"
Fe       0.92877000       1.08311000       2.12831000      -0.53214900      -1.15432400       0.53007800      -0.62367765      -1.15467880       0.47011060
Fe       1.12794000       0.45096000       7.37327000      -2.86345100       2.18226700       1.45805300      -2.74030212       2.08261183       1.42087124
Fe       0.91289000       3.61082000       1.96264000      -1.66570100       0.50807500      -4.76654600      -1.58575342       0.10723990      -4.48436542
Fe       0.97242000       3.25012000       3.83975000      -0.85629000      -1.23507100      -0.91491200      -1.10073147      -1.06285949      -0.63776851
Fe       1.43574000       3.84332000       5.84621000      -1.94378300      -0.72872400       4.94145300      -2.05126570      -0.52923364       4.72309606
Fe       0.45897000       5.99881000       1.32384000       1.86679900       1.45939200      -0.33976700       1.67423230       1.45764221      -0.16412456
Fe       0.05714000       6.25044000       6.01250000       0.66851500      -0.88142700       1.67028200       0.61470114      -0.75421509       1.72691786
Fe       1.87526000       7.05991000       7.27744000      -5.90957000       6.81146600       5.95768600      -5.62251877       6.97996784       5.78581934
Fe       4.21220000       0.80536000       3.81626000       0.44958900      -1.97725700       0.54591300       0.53630232      -1.80857354       0.45511276
Fe       2.64196000       0.75311000       5.88605000       0.80305000      -0.92688600      -1.50973400       0.50632928      -1.08928145      -1.52649059
Fe       2.51735000       4.27963000       7.86001000      -0.17185400       2.88247300       0.00075600      -0.18793019       3.06293534       0.06682834
Fe       2.46175000       4.76211000       4.38544000       2.27245000       6.36429500      -0.60000700       2.28925741       6.36850008      -0.47569882
Fe       3.99132000       4.46692000       6.09268000      -0.21521200      -1.96607600      -0.25853400      -0.32624055      -2.18998336      -0.13331464
Fe       4.03283000       6.20484000       2.50717000       0.32509400      -1.83048700       1.07686200       0.35780966      -1.78468565       1.11141520
Fe       2.62183000       8.12097000       1.25125000      -5.45108600      -1.04608100      -0.88869000      -5.59376091      -1.10290929      -0.67387267
Fe       2.34208000       7.49949000       3.33705000      -1.45221900       0.10179900       1.96325000      -1.30171747       0.10356512       1.58274932
Fe       4.67554000       0.98699000       8.35162000       1.97529500       0.95938300       0.07305200       1.70654264       0.85323039       0.32822149
Fe       4.68615000       2.28426000       1.60336000       6.03713100       4.39249100       1.56082500       6.16188828       4.36374843       1.11653200
Fe       4.95897000       4.28949000       0.91503000       1.24258400       3.77490300      -1.07876200       0.79582009       3.54367212      -1.17214199
Fe       5.62605000       3.84953000       3.25301000      -4.56775200       3.43217100       2.09526400      -4.71360322       3.43840486       1.93348658
Fe       5.63153000       5.70233000       4.67966000       0.04558900       0.36352900      -0.74034800       0.12085710      -0.05368735      -0.59512053
Fe       5.00954000       6.14620000       6.89198000       4.51113600      -2.60361300       1.43664400       4.56825738      -2.57361831       1.28535771
Fe       5.34723000       7.32984000       0.56425000       3.41130600      -7.55812200      -7.44238600       3.21524498      -7.14547271      -7.10457450
Fe       4.57141000       8.20633000       1.67615000      -2.51651100       6.57056000       9.11650700      -2.29874961       6.20066828       8.81813295
Fe       5.67084000       7.83697000       6.02451000      -0.02983000       3.57151200       0.33120700      -0.05204382       3.68193750       0.46152797
Fe       7.65837000       1.05332000       0.64336000       1.95813700       2.93603900      -3.62028800       1.79174456       2.80786756      -3.40779557
Fe       7.23579000       1.49494000       3.62009000       0.88838800      -1.50203300       3.00240400       1.07099579      -1.50175057       3.00275958
Fe       6.96409000       1.59543000       6.70415000       0.40175100      -2.57633900      -0.54943900       0.44094205      -2.38750354      -0.47388191
Fe       6.97946000       3.05325000       2.27831000       3.01329100      -2.85779700      -7.80747400       2.64254678      -2.88374956      -7.42779271
Fe       7.05854000       3.62734000       7.13255000       0.94483300       2.42104600       2.56329500       0.99949568       2.27826535       2.35923325
Fe       7.47490000       4.49325000       0.92243000      -3.13561000       0.06366500       0.11142200      -2.80688065       0.40865034      -0.13074725
Fe       7.76499000       5.40883000       4.05655000       3.42051700      -2.49950500       1.10150300       3.62781327      -2.66771094       1.14843748
Fe       6.91686000       6.16423000       2.38917000      -4.34160700       0.52717700      -3.24358900      -4.37540602       0.86744374      -3.25365650
Fe       7.31773000       7.39473000       4.73130000      -1.41907300       3.06948200       1.38572900      -1.45780402       2.97905061       1.32790681
B        1.63947000       5.44017000       2.85377000      -1.37965300       1.67099600      -0.34434500      -1.42358451       1.76092854      -0.52717975
B        3.47444000       1.29905000       1.69513000      -6.04542900      -7.46227000      -1.52467000      -6.13262520      -6.98104270      -1.29399629
B        2.31673000       1.42955000       3.77944000      -1.85652800      -2.14982900       3.21956500      -1.84462972      -1.94019347       3.28836499
B        3.17088000       0.01260000       8.16689000      -2.14308300      -0.12737100      -3.63430700      -2.09014872       0.13391265      -3.46666936
B        2.48887000       2.23189000       2.44876000      -1.30373000       3.96631200      -0.94871100      -0.91510093       3.68068032      -1.23248991
B        3.55016000       3.21990000       0.17024000       2.13469500      -3.52588700       0.23974700       2.16466932      -3.59865032       0.38497740
B        3.12966000       3.07291000       4.24572000      -6.99085300       0.34377600      -0.16579100      -6.82965509       0.10126471      -0.17141598
B        2.38358000       5.95301000       6.34325000       2.25901800      -8.76611800      -6.31465800       2.11848146      -9.06497912      -6.43492801
B        4.46260000       2.62992000       4.23823000       7.08507900      -1.75449200       0.40993300       6.94167948      -1.82521392       0.36242519
B        7.51183000       3.59374000       3.85724000       1.49621300      -1.20378300       3.39561400       1.49490986      -1.00741425       3.23207480
Si       0.50050000       1.66927000       5.10425000      -1.02554400      -2.67263500       2.61432900      -0.78507361      -2.97680216       2.54987750
Si       0.41923000       4.50138000       8.15701000       0.82744200      -0.47721100      -2.57541600       1.11378833      -0.44086206      -2.75831666
Si       2.90131000       4.25049000       1.93860000       2.71957100       0.04497600      -0.88170100       2.69170521       0.00033562      -1.01805777
Si       3.74353000       6.85388000       5.19884000      -1.20766000       1.80214700      -2.20114300      -1.07907737       1.94113517      -2.06942704
Si       3.54209000       6.47938000       8.21357000      -0.45014500      -1.75854100       4.24377300      -0.57536623      -2.01356546       4.41481652
Si       4.55252000       1.74669000       6.40118000       0.28733400       0.20348600      -1.69136000       0.29000408       0.23449013      -1.65991768
Si       5.87020000       3.30923000       5.41310000       1.93974000       0.55942400      -1.14043100       1.68645515       0.82142861      -1.25528969
Si       6.68392000       0.09389000       2.07850000      -2.78148600      -1.30329400       2.70552900      -2.56643097      -1.24124359       2.85762594
Si       7.30980000       7.36953000       0.08595000       4.18267400      -0.22507900      -1.67891000       4.42970073      -0.37302819      -1.75366877
Si       8.41387000       7.50606000       2.97540000       5.08859000       1.78741200      -0.88875800       5.02790362       1.89333130      -0.91197583
54
Lattice="8.579999685 0.0 0.0 0.0 8.579999685 0.0 0.0 0.0 8.5799996" Properties=species:S:1:pos:R:3:REF_forces:R:3:MACE_forces:R:3 config_type=Fe34B10Si10 REF_energy=-359.84864784 MACE_energy=-360.44387077302304 pbc="T T T"
Fe       0.39531000       2.37288000       0.87042000       3.27925500       2.43832800      -1.60261100       3.18105237       2.61219298      -1.70142109
Fe       0.75383000       1.65209000       3.11094000       1.30783500      -0.34615400      -0.09267000       1.37999229      -0.69305261       0.04503170
Fe       1.33201000       3.79282000       7.26231000      -2.40668100      -1.18131200       0.32245500      -2.54202247      -1.18316980       0.20398188
Fe       0.64436000       4.41396000       2.97573000       2.42004200      -2.26182600       0.38963900       2.46022520      -2.06186687       0.21682600
Fe       0.14751000       6.42079000       3.51005000      -3.07002100       1.32407200      -2.30638400      -3.18030218       1.33156387      -2.48775924