54
Lattice="8.579999685 0.0 0.0 0.0 8.579999685 0.0 0.0 0.0 8.5799996" Properties=species:S:1:pos:R:3:REF_forces:R:3:MACE_forces:R:3 config_type=Fe34B10Si10 REF_energy=-352.89092233 MACE_energy=-353.2813437443691 pbc="T T T"
Fe       1.46495000       0.71583000       1.12880000       3.73230100      -3.41607500      -3.76209700       3.73884770      -3.48415246      -3.65579324
Fe       0.56244000       2.07917000       1.96452000      -3.31290700       4.06628900       2.54508600      -3.36646795       4.10882053       2.40172734
Fe       0.86636000       2.12990000       5.00906000     -10.85567700      -2.87102900      12.20968700     -10.92617226      -2.93423418      12.18958060
Fe       0.24697000       2.61233000       7.83061000      -0.37811800      -2.03816900      -0.08744800      -0.33106518      -2.08420307       0.11611755
Fe       0.35437000       4.66395000       8.16447000      -1.30300600       1.62250000       0.84662400      -1.36771391       1.69999317       0.81840812
Fe       0.83543000       8.00840000       3.01492000       5.54921000      -2.55787300       0.52513800       5.56188242      -2.64493597       0.45035101
Fe       2.03952000       7.84431000       6.63062000      -4.28706100       1.82495200      -1.68802900      -4.02116251       2.03552644      -1.69230781
Fe       3.34318000       0.11090000       2.96052000      -0.46571400      -0.35056300       0.37864800      -0.47862475      -0.18154463       0.48359042
Fe       3.26317000       2.11539000       1.48699000      -3.47884800      -0.03222100       0.61542300      -3.31662982      -0.27659122       0.21787706
Fe       4.14313000       2.75755000       3.31065000      -0.71378000      -2.73118300       1.93004800      -0.68529036      -2.47054699       1.90088160
Fe       2.55051000       2.67374000       7.19710000      -2.55215900      -0.93589000       1.77261600      -2.33502736      -1.03590678       1.70944107
Fe       3.61327000       2.86500000       5.46497000       1.55763200       0.20514300      -0.56676300       1.46246891       0.33043227      -0.27236810
Fe       2.62400000       4.72550000       1.39174000      -1.08585200      -1.19598700       0.59645400      -1.36703920      -0.93031355       0.70760860
Fe       2.20317000       5.21693000       3.87451000      -3.92870900      -4.38103900      -4.92199500      -3.84029921      -4.34297541      -5.00080383
Fe       3.93082000       4.37819000       8.08226000       1.07616800       0.44807800      -0.99700400       1.02359625       0.26395690      -1.06467447
Fe       2.44961000       7.01753000       1.08943000       0.32119000      -1.55635000       3.27006500       0.45433164      -1.63764352       3.33175923
Fe       3.02500000       6.15780000       5.08193000      -1.08486800       1.64126100       3.95415400      -0.43396913       1.57109105       3.90527490
Fe       5.77712000       0.44616000       0.16142000      -2.43333700       0.07175000       4.13474700      -2.41349522       0.43400288       4.18998914
Fe       5.66964000       0.14892000       2.95259000      -3.67617900       1.90971100       0.12919700      -3.70207049       1.65993196       0.28631219
Fe       5.39484000       2.66317000       1.55162000       4.08183700      -3.39937100       3.88213200       3.97067624      -3.75832324       4.10905697
Fe       5.91309000       3.40423000       8.31953000       8.90196200       5.48305700      -2.72562400       8.69744405       5.49738473      -2.75967007
Fe       4.96126000       4.63305000       3.41410000      -3.60269200      -2.00302700       2.25051900      -3.86592931      -2.26824914       2.40340812
Fe       5.11347000       6.81217000       1.78872000      -0.87770500       0.06714300      -1.61156800      -0.67794555       0.12100098      -1.59509865
Fe       5.00950000       6.45991000       8.24507000      -2.30619500      -0.19808200      -1.52355700      -2.20620411      -0.03479339      -1.68618270
Fe       4.64263000       7.71190000       5.75084000       2.50156800       4.23919200      -1.55456800       2.56791786       4.24823602      -1.64330584
Fe       7.32285000       0.33022000       5.03535000      -0.99210900      -0.59745100       4.73628300      -1.02854667      -0.38520289       4.73873255
Fe       6.75330000       1.32958000       7.05071000       0.53851300       2.01290400       0.36400700       0.48006548       1.87335939       0.33688922
Fe       6.82686000       2.53028000       3.66692000      -0.08907100      -0.12987400      -0.26318300       0.03031601      -0.19694517      -0.24609334
Fe       6.83617000       5.56618000       0.59386000       1.74434500       1.47371700      -3.32847200       1.81529173       1.84632021      -3.45603614
Fe       8.27091000       4.29855000       2.87718000       3.23308900       0.33980500       1.37352500       3.12109358       0.18697742       1.36320184
Fe       6.58774000       4.90718000       4.97515000      -1.87594500       0.58060600      -0.05143700      -2.06607089       0.53327136      -0.60942381
Fe       6.86773000       6.79187000       3.27473000       1.52763600      -2.76254700       0.67579100       1.46711366      -2.45873301       0.35091857
Fe       8.09083000       8.29691000       0.84396000      -4.18921500      -1.95965200       9.56442300      -4.28689723      -2.30346129       9.58284361
Fe       6.62133000       7.67903000       7.47205000      -3.65417600       1.51975600      -3.32990400      -3.97044404       1.32134044      -3.46923655
B        3.45077000       6.81738000       6.75435000       2.04131500      -2.79808300       3.80923700       1.90424067      -2.78874621       3.95474073
B        4.67436000       1.10514000       4.73414000       0.75036200       0.95391600      -0.52852700       0.82014583       0.88634835      -0.41322846
B        6.18153000       2.20088000       5.47737000      -4.49435700      -3.20609500      -2.27763700      -4.65656630      -3.16406052      -2.40374234
B        5.08133000       4.10197000       6.35983000       0.35152900       0.25548900      -0.65354500       0.52258017       0.37205128      -0.61379731
B        4.48663000       4.29393000       1.40792000      -0.27448100       1.04603100       0.21283300      -0.21467636       1.19081939       0.23861698
B        4.96286000       5.88068000       6.14703000       0.60492000      -1.85032800       0.29314600       0.49698929      -1.91753088       0.14126565
B        8.17242000       5.65216000       5.55863000       1.00443800       0.65677900      -0.69824300       1.00905429       0.78848722      -0.28232328
B        7.98743000       6.92663000       6.60530000       5.86774900       2.58695800      -4.05103700       5.77189868       2.31283411      -3.72903961
B        7.10769000       5.72812000       6.91109000      -2.33709700      -3.34606800       1.34633400      -2.11931912      -3.38490397       1.63140822
B        7.81665000       6.81498000       8.33858000       5.04350100      -2.41043400       0.97359300       5.08838043      -2.64473469       0.58903112
Si       0.06983000       0.14925000       7.74742000       4.12649000       2.60901100      -8.87608100       4.03232567       2.61261977      -8.76476354
Si       1.93337000       2.41223000       3.74634000      10.14534600       2.98113100     -12.18526000      10.23785632       3.06558241     -12.00924293
Si       0.75978000       6.02813000       1.69309000      -4.13401100      -0.74920300       1.02787300      -4.14290949      -0.83384357       0.97979195
Si       2.22023000       5.10313000       7.16329000      -1.58663400       1.19675500      -1.89967800      -1.64217675       1.15176089      -1.89393796
Si       3.27754000       8.17117000       8.35443000       4.04667900       4.58101600      -2.24829100       3.92927045       4.57708606      -2.40290066
Si       4.48145000       2.18337000       8.34202000      -5.72220500      -5.96162700      -4.99603400      -5.49873409      -5.95673202      -5.13308865
Si       6.36439000       4.54151000       2.12641000       2.28764700      -2.33178900       1.39384200       2.52954172      -2.12616447       1.33440747
Si       4.52267000       6.51460000       3.75633000       0.42177200       5.22743800       1.25328700       0.11957264       5.30028390       1.34504640
Si       7.68278000       0.22257000       3.11016000      -0.17295300       4.89916800      -3.86478000      -0.26196945       4.82664504      -3.94669442
Si       7.35363000       3.38410000       6.13231000       4.40786200       1.27045000       2.62604800       4.37051500       1.42930808       2.93547552
54
Lattice="8.579999685 0.0 0.0 0.0 8.579999685 0.0 0.0 0.0 8.5799996" Properties=species:S:1:pos:R:3:REF_forces:R:3:MACE_forces:R:3 config_type=Fe34B10Si10 REF_energy=-354.71875992 MACE_energy=-355.3663457808484 pbc="T T T"
Fe       0.43313000       1.19321000       2.96848000       1.47291300       2.99028000       0.61180900       1.45810992       2.91831180       0.32952479
Fe       0.91365000       1.12516000       8.09995000       2.76260400      -2.00335600       1.20968300       2.41342538      -1.95872774       1.06537210
Fe       1.17142000       2.67870000       5.23446000      -1.90323000       6.04651700       0.58026800      -1.74367973       6.12659877       0.41012803
Fe       0.60772000       3.85484000       0.87278000       2.66909500       4.89444800       4.53699300       2.56044423       5.01834501       4.18779746
Fe       1.41565000       3.44858000       3.01161000      -0.29549500       2.03729500      -0.74017400      -0.07848214       1.92570497      -0.67347952
Fe       0.04226000       2.91249000       8.09734000      -3.39897200      -2.84207300      -2.69442200      -2.79915642      -2.91726820      -2.39616599
Fe       1.33282000       7.09057000       5.22634000      -0.45239700      -1.35392500       0.92503500      -0.22739378      -1.50900775       0.96929159
Fe       2.06045000       7.92051000       0.98063000      -3.11321000      -0.30108300      -2.49280600      -3.17736693      -0.41205040      -2.43049648
Fe       2.03627000       8.24295000       3.50701000      -1.42216600       4.38122900       0.88517600      -1.48578011       4.12261479       0.65291042
Fe       0.01253000       8.02686000       7.00667000       2.58679700       0.98610200     -11.80201700       2.44462678       0.90703951     -11.87588934
Fe       3.00353000       0.57289000       6.13981000      -1.03922300       0.18357300       0.93137300      -0.78998449       0.11671710       1.01118090
Fe       3.69949000       2.65196000       7.51811000       2.76433000      -4.34399200      -3.80269000       2.59888823      -4.11343801      -3.67556954
Fe       2.94478000       6.44154000       3.03987000       7.21319500      -3.66655800      -1.17614100       7.01478650      -3.46936971      -1.01924976
Fe       2.94309000       5.75189000       6.64956000      -6.24071800      -0.74678300       3.86021800      -6.45860898      -0.64434847       3.89535796
Fe       3.71160000       8.39321000       1.86324000       2.24845700      -0.43546600       0.28887200       2.24692860      -0.15159749       0.69148059
Fe       4.07810000       8.43915000       4.32840000       2.88035800       1.28304800      -0.49181300       2.85697044       1.35816650      -0.75789902
Fe       5.57499000       0.73262000       6.31633000      -3.12774100      -1.68249800      -0.98058200      -2.83485339      -1.68831721      -0.91377827
Fe       4.70712000       1.94493000       1.65492000      -2.04675700       4.97917500      -3.67899600      -2.14968448       4.77354314      -3.45817704
Fe       4.73401000       4.18392000       1.24748000       0.71501700       1.80608500      -0.06999200       0.71632753       2.02194879      -0.10564984
Fe       4.56687000       4.22266000       4.39618000       0.73801700       3.32591500      -2.10569900       0.51168133       3.16520369      -2.19106526
Fe       4.51224000       4.61167000       7.05684000       2.53211900      -0.41024200       0.53825400       2.97265680      -0.75466144       0.48551857
Fe       6.32808000       6.81945000       4.24288000      -3.20445400      -0.33519400      -1.28892300      -2.79306985      -0.24199090      -1.09900678
Fe       6.22240000       7.17309000       0.16230000      -3.30904600      -2.75215800       1.90373500      -3.51882601      -3.02045012       2.07514270
Fe       4.54224000       7.44382000       7.03838000       0.17895600      -5.02037800      -8.74618400       0.28582963      -5.24061377      -8.91082819
Fe       4.73272000       8.55832000       8.35561000      -0.10588400       8.96287400       6.54083400      -0.21620488       9.44147039       6.20184333
Fe       7.67285000       2.82429000       2.17742000      -2.12886900      -0.76272600      -2.06587500      -2.07197923      -0.82778603      -1.98368912
Fe       6.74071000       1.77406000       4.33655000       0.47479500       0.50025500      -0.42349800       0.07650298       0.43956022      -0.46827068
Fe       7.16362000       1.61896000       6.68131000       5.11373900       1.83737400       0.70818800       4.76232979       1.67103140       0.64057015
Fe       6.73653000       4.13840000       7.84564000       0.19062300       0.32905600       3.59274800       0.13050721       0.49214489       3.63506437
Fe       6.61248000       5.35948000       2.44590000       0.96755600      -0.77403900      -0.47053600       0.84324783      -0.66853560      -0.49963098
Fe       8.39074000       4.95678000       4.82580000       0.50677700       3.21370700       1.22596300       0.60976222       3.11352115       1.08947959
Fe       6.62275000       6.29700000       6.29237000       0.91106900      -0.58785400       1.74696000       0.80670511      -0.47542659       1.60559986
Fe       8.00875000       8.14674000       2.12563000      -1.25903800      -1.94608200      -3.37077000      -0.88106584      -1.94419834      -3.39561957
Fe       7.96861000       8.10559000       4.08816000       1.24434400       0.03207600       4.40361200       0.70362207       0.01204609       4.51470106
B        3.14587000       1.61638000       2.59818000      -3.96044800      -1.57388800      -2.24367700      -3.97196816      -1.49299879      -2.04004170
B        4.07212000       1.93087000       3.78701000       0.55534200       0.12762300      -3.25123200       0.44559556       0.14578109      -3.19009876
B        2.24412000       1.90783000       4.05913000      -1.80380000      -9.70850100      -5.48536600      -1.84659458      -9.93942233      -5.59061636
B        2.90130000       3.06657000       4.45062000       2.48509300       7.60479000      -1.50334300       2.90426191       7.29415121      -1.52925240
B        2.82587000       3.80138000       5.80651000       0.21675600       2.27927400       3.92227300       0.32070692       2.12871101       3.87069473
B        2.60929000       5.04297000       1.66311000       0.12617300      -0.77075900      -0.46531300      -0.05985380      -0.77075028      -0.40038217
B        2.47198000       4.95014000       4.32601000      -0.76752800      -1.31946700       0.35153300      -0.81516060      -1.21202209       0.35348881
B        2.73354000       7.81887000       7.66829000      -1.47869400      -0.15377200       0.00458000      -1.52462108      -0.17265333       0.19358832
B        5.68071000       2.28134000       7.79544000      -0.95924500       0.41857400       1.11780500      -0.94093005       0.34447983       1.05457021
B        7.77536000       3.70665000       3.76574000      -0.44877700      -1.48394500      -0.38974400      -0.55403668      -1.39787188      -0.04369664
Si       0.79518000       0.92195000       5.77957000      -1.66645900      -4.94136200      -1.10925300      -1.62212652      -5.09472002      -0.94777577
Si       0.88055000       4.20706000       6.73551000       1.15626000       3.58432200      -0.32349000       1.10454193       3.76329099      -0.21479156
Si       1.15025000       6.44729000       2.43826000      -7.77651300      -1.83655100      -1.54918700      -7.89743748      -1.72426252      -1.71540335
Si       2.82820000       3.29548000       0.50208000      -4.05499500       1.58525200       5.32597100      -4.12382620       1.46562330       5.26475613
Si       4.14031000       6.38272000       0.30005000      -2.16949800      -2.44928300       2.57761000      -2.22936438      -2.48421244       2.54720619
Si       3.68345000       6.43010000       5.01209000       3.98893100       0.98565200      -2.13453700       3.84637309       1.17518713      -2.07920581
Si       5.73751000       0.59059000       2.53265000       5.08228400      -4.90021500       2.23852200       5.13562297      -4.90954992       2.49432693
Si       4.51163000       2.47994000       5.36819000       2.60737700      -2.86786400       7.12589500       2.76644764      -2.68062949       7.00330670
Si       6.43436000       3.75222000       5.86206000       1.38008400       0.66155200      -3.64612400       1.57058909       0.77743696      -3.75880610
Si       8.06432000       7.52318000       8.55473000       2.36409700      -3.06603600      11.34847700       2.70456408      -2.80174886      11.12163450
18
Lattice="6.5 0.0 0.0 0.0 6.5 0.0 0.0 0.0 6.5" Properties=species:S:1:pos:R:3:REF_forces:R:3:MACE_forces:R:3 config_type=Fe12B3Si3 REF_energy=-113.87843945 MACE_energy=-113.05562565602543 pbc="T T T"
Fe       5.40234000       5.43492000       1.53729000      -1.39532100       2.04028400       0.71142300      -1.08605295       1.92391506       0.69562128
Fe       2.09750000       2.10361000       0.54730000       2.35673700      -0.33103000       1.27254800       2.51345759      -0.07352910       1.15661538
Fe       2.84360000       1.73250000       3.81271000       2.28004000      -1.18251600      -0.27344700       2.18110204      -0.99781235      -0.17809706
Fe       0.77541000       4.93717000       1.04317000       1.56096300      -3.83372900       1.76362000       1.35875102      -3.54092133       1.50015414
Fe       0.07665000       3.70431000       3.74351000      -0.75952900      -0.39175400      -2.23189700      -1.07083750      -0.45474032      -2.28572104
Fe       4.77171000       3.58949000       4.78220000      -1.99219600      -4.62409700       0.48420500      -1.74698044      -4.55280739       0.40718364
Fe       4.12430000       1.49867000       1.46476000       0.29771700      -2.38794700       0.28396300       0.31396127      -2.65088425       0.10447959
Fe       0.95387000       5.17746000       5.28728000      -0.57085000      -0.50160400      -1.80733600      -0.95279815      -0.71025421      -1.30456198
Fe       1.93602000       3.09888000       2.36598000      -0.08855100       0.43128300      -0.27209000      -0.17406760       0.58044750      -0.44461519
Fe       5.69037000       1.28357000       4.20026000      -0.40866000      -0.49067900       0.18976600      -0.73181191      -0.27234835       0.22878756
Fe       1.94321000       2.86141000       5.39871000      -0.55906500       0.73218900      -1.80086600      -0.55404091       0.75332776      -1.88410399
Fe       4.33122000       5.38124000       5.25469000      -0.73272900       4.56545400       1.52017900      -0.64927478       4.36254856       1.53195681
B        0.37598000       1.64060000       1.21420000      -3.21263000       2.85095800       0.76078000      -3.05904292       2.71885371       0.88910446
B        1.88110000       4.04794000       3.96741000       2.48956600       2.45119300      -0.32261600       2.69049098       2.32443977      -0.33179307
B        3.63878000       0.94242000       5.41981000      -0.01444500       0.67937600       0.95779200       0.15797627       0.82871534       1.08952789
Si       1.19380000       0.26963000       0.19686000       0.54051800       0.24528300      -1.93219100       0.67877899      -0.00736122      -1.90722615
Si       4.57825000       3.47658000       1.16117000       0.15934200       1.26766700      -0.81102600       0.19464391       1.44205849      -0.73772345
Si       1.09558000       0.76720000       2.75124000       0.04909300      -1.52033200       1.50719200      -0.06425494      -1.67364769       1.47041117
54
Lattice="8.579999685 0.0 0.0 0.0 8.579999685 0.0 0.0 0.0 8.5799996" Properties=species:S:1:pos:R:3:REF_forces:R:3:MACE_forces:R:3 config_type=Fe34B10Si10 REF_energy=-356.0869274 MACE_energy=-356.9287138583209 pbc="T T T"
Fe       0.92877000       1.08311000       2.12831000      -0.53214900      -1.15432400       0.53007800      -0.68630290      -1.22804807       0.41553781
Fe       1.12794000       0.45096000       7.37327000      -2.86345100       2.18226700       1.45805300      -2.85878024       1.99871636       1.46276705
Fe       0.91289000       3.61082000       1.96264000      -1.66570100       0.50807500      -4.76654600      -1.66219981       0.30130203      -4.77392257
Fe       0.97242000       3.25012000       3.83975000      -0.85629000      -1.23507100      -0.91491200      -1.06799786      -1.20058333      -0.32642442
Fe       1.43574000       3.84332000       5.84621000      -1.94378300      -0.72872400       4.94145300      -2.07074491      -0.54518088       4.67302491
Fe       0.45897000       5.99881000       1.32384000       1.86679900       1.45939200      -0.33976700       1.64614438       1.57891363      -0.16665242
Fe       0.05714000       6.25044000       6.01250000       0.66851500      -0.88142700       1.67028200       0.74210399      -0.75922031       1.77752201
Fe       1.87526000       7.05991000       7.27744000      -5.90957000       6.81146600       5.95768600      -5.76359788       7.20168408       5.94407347
Fe       4.21220000       0.80536000       3.81626000       0.44958900      -1.97725700       0.54591300       0.54797731      -1.90827230       0.44782247
Fe       2.64196000       0.75311000       5.88605000       0.80305000      -0.92688600      -1.50973400       0.58318404      -1.08600387      -1.57598591
Fe       2.51735000       4.27963000       7.86001000      -0.17185400       2.88247300       0.00075600       0.01172730       2.96339031       0.31707010
Fe       2.46175000       4.76211000       4.38544000       2.27245000       6.36429500      -0.60000700       2.21316062       6.32865993      -0.58069403
Fe       3.99132000       4.46692000       6.09268000      -0.21521200      -1.96607600      -0.25853400      -0.21486649      -2.15964120      -0.17279159
Fe       4.03283000       6.20484000       2.50717000       0.32509400      -1.83048700       1.07686200       0.43208468      -1.74399223       1.15328246
Fe       2.62183000       8.12097000       1.25125000      -5.45108600      -1.04608100      -0.88869000      -5.54611478      -1.05812466      -0.57830022
Fe       2.34208000       7.49949000       3.33705000      -1.45221900       0.10179900       1.96325000      -1.25394422       0.21584888       1.59059252
Fe       4.67554000       0.98699000       8.35162000       1.97529500       0.95938300       0.07305200       1.71999527       0.79946511       0.39780209
Fe       4.68615000       2.28426000       1.60336000       6.03713100       4.39249100       1.56082500       6.19699749       4.35008509       1.16541527
Fe       4.95897000       4.28949000       0.91503000       1.24258400       3.77490300      -1.07876200       0.69908342       3.47179307      -1.25181795
Fe       5.62605000       3.84953000       3.25301000      -4.56775200       3.43217100       2.09526400      -4.59795035       3.50048265       1.91665114
Fe       5.63153000       5.70233000       4.67966000       0.04558900       0.36352900      -0.74034800       0.05719231      -0.06293760      -0.59939413
Fe       5.00954000       6.14620000       6.89198000       4.51113600      -2.60361300       1.43664400       4.54822870      -2.40070426       1.38852985
Fe       5.34723000       7.32984000       0.56425000       3.41130600      -7.55812200      -7.44238600       3.34820613      -7.01557770      -7.22742987
Fe       4.57141000       8.20633000       1.67615000      -2.51651100       6.57056000       9.11650700      -2.62363997       6.13628042       8.67513220
Fe       5.67084000       7.83697000       6.02451000      -0.02983000       3.57151200       0.33120700      -0.09563909       3.68825368       0.39753646
Fe       7.65837000       1.05332000       0.64336000       1.95813700       2.93603900      -3.62028800       1.88648164       2.96928388      -3.51254642
Fe       7.23579000       1.49494000       3.62009000       0.88838800      -1.50203300       3.00240400       0.96767410      -1.58920986       3.05808361
Fe       6.96409000       1.59543000       6.70415000       0.40175100      -2.57633900      -0.54943900       0.52502950      -2.53364896      -0.52005924
Fe       6.97946000       3.05325000       2.27831000       3.01329100      -2.85779700      -7.80747400       2.46689003      -2.95944708      -7.22360287
Fe       7.05854000       3.62734000       7.13255000       0.94483300       2.42104600       2.56329500       1.03341808       2.45113740       2.48730562
Fe       7.47490000       4.49325000       0.92243000      -3.13561000       0.06366500       0.11142200      -2.92126710       0.42690148      -0.31411700
Fe       7.76499000       5.40883000       4.05655000       3.42051700      -2.49950500       1.10150300       3.50433264      -2.67119044       1.13662716
Fe       6.91686000       6.16423000       2.38917000      -4.34160700       0.52717700      -3.24358900      -4.30886034       0.63808851      -3.18203504
Fe       7.31773000       7.39473000       4.73130000      -1.41907300       3.06948200       1.38572900      -1.42279131       3.07275629       1.33781919
B        1.63947000       5.44017000       2.85377000      -1.37965300       1.67099600      -0.34434500      -1.46996260       1.77446067      -0.61688930
B        3.47444000       1.29905000       1.69513000      -6.04542900      -7.46227000      -1.52467000      -5.89752799      -7.25001732      -1.18150281
B        2.31673000       1.42955000       3.77944000      -1.85652800      -2.14982900       3.21956500      -1.75679513      -1.98005968       3.48228651
B        3.17088000       0.01260000       8.16689000      -2.14308300      -0.12737100      -3.63430700      -2.04974604       0.09758060      -3.59186177
B        2.48887000       2.23189000       2.44876000      -1.30373000       3.96631200      -0.94871100      -0.88527805       3.88051186      -1.26798426
B        3.55016000       3.21990000       0.17024000       2.13469500      -3.52588700       0.23974700       2.16081634      -3.43462615       0.24067370
B        3.12966000       3.07291000       4.24572000      -6.99085300       0.34377600      -0.16579100      -7.16686173       0.09309347      -0.28511372
B        2.38358000       5.95301000       6.34325000       2.25901800      -8.76611800      -6.31465800       2.23712258      -9.20935395      -6.55397144
B        4.46260000       2.62992000       4.23823000       7.08507900      -1.75449200       0.40993300       7.22755000      -1.75945737       0.46165160
B        7.51183000       3.59374000       3.85724000       1.49621300      -1.20378300       3.39561400       1.51569602      -1.10554412       3.28400502
Si       0.50050000       1.66927000       5.10425000      -1.02554400      -2.67263500       2.61432900      -0.83450362      -2.92374652       2.53461697
Si       0.41923000       4.50138000       8.15701000       0.82744200      -0.47721100      -2.57541600       1.06090507      -0.46163063      -2.80397209
Si       2.90131000       4.25049000       1.93860000       2.71957100       0.04497600      -0.88170100       2.92549300      -0.04661526      -1.11157511
Si       3.74353000       6.85388000       5.19884000      -1.20766000       1.80214700      -2.20114300      -1.08610677       1.98550942      -2.18748660
Si       3.54209000       6.47938000       8.21357000      -0.45014500      -1.75854100       4.24377300      -0.55979685      -2.00794615       4.44131442
Si       4.55252000       1.74669000       6.40118000       0.28733400       0.20348600      -1.69136000       0.28323105       0.18192539      -1.69765787
Si       5.87020000       3.30923000       5.41310000       1.93974000       0.55942400      -1.14043100       1.57444943       0.72797376      -1.13686020
Si       6.68392000       0.09389000       2.07850000      -2.78148600      -1.30329400       2.70552900      -2.47509865      -1.21991951       2.83654016
Si       7.30980000       7.36953000       0.08595000       4.18267400      -0.22507900      -1.67891000       4.12559596      -0.51158922      -1.68117338
Si       8.41387000       7.50606000       2.97540000       5.08859000       1.78741200      -0.88875800       5.03560361       1.99819068      -0.90186156
54
Lattice="8.579999685 0.0 0.0 0.0 8.579999685 0.0 0.0 0.0 8.5799996" Properties=species:S:1:pos:R:3:REF_forces:R:3:MACE_forces:R:3 config_type=Fe34B10Si10 REF_energy=-359.84864784 MACE_energy=-360.32676246788304 pbc="T T T"
Fe       0.39531000       2.37288000       0.87042000       3.27925500       2.43832800      -1.60261100       3.21029200       2.64049480      -1.76378965
Fe       0.75383000       1.65209000       3.11094000       1.30783500      -0.34615400      -0.09267000       1.27377179      -0.80399599       0.19650200
Fe       1.33201000       3.79282000       7.26231000      -2.40668100      -1.18131200       0.32245500      -2.51825405      -1.06089205       0.20417652
Fe       0.64436000       4.41396000       2.97573000       2.42004200      -2.26182600       0.38963900       2.47616266      -2.07232380       0.23001727
Fe       0.14751000       6.42079000       3.51005000      -3.07002100       1.32407200      -2.30638400      -3.11614231       1.36665760      -2.50645548