54
Lattice="8.579999685 0.0 0.0 0.0 8.579999685 0.0 0.0 0.0 8.5799996" Properties=species:S:1:pos:R:3:REF_forces:R:3:MACE_forces:R:3 config_type=Fe34B10Si10 REF_energy=-352.89092233 MACE_energy=-353.23149516900787 pbc="T T T"
Fe       1.46495000       0.71583000       1.12880000       3.73230100      -3.41607500      -3.76209700       3.76617300      -3.52369769      -3.72427662
Fe       0.56244000       2.07917000       1.96452000      -3.31290700       4.06628900       2.54508600      -3.38704752       4.14084237       2.43238751
Fe       0.86636000       2.12990000       5.00906000     -10.85567700      -2.87102900      12.20968700     -10.94297791      -2.93972532      12.16705336
Fe       0.24697000       2.61233000       7.83061000      -0.37811800      -2.03816900      -0.08744800      -0.31139308      -2.06434858       0.13746800
Fe       0.35437000       4.66395000       8.16447000      -1.30300600       1.62250000       0.84662400      -1.36489295       1.64995963       0.81080175
Fe       0.83543000       8.00840000       3.01492000       5.54921000      -2.55787300       0.52513800       5.53576013      -2.63895673       0.45112071
Fe       2.03952000       7.84431000       6.63062000      -4.28706100       1.82495200      -1.68802900      -4.03616823       2.02821280      -1.69035045
Fe       3.34318000       0.11090000       2.96052000      -0.46571400      -0.35056300       0.37864800      -0.46921446      -0.18606869       0.49527889
Fe       3.26317000       2.11539000       1.48699000      -3.47884800      -0.03222100       0.61542300      -3.32808635      -0.28593188       0.22458470
Fe       4.14313000       2.75755000       3.31065000      -0.71378000      -2.73118300       1.93004800      -0.67295544      -2.50101618       1.93036610
Fe       2.55051000       2.67374000       7.19710000      -2.55215900      -0.93589000       1.77261600      -2.31775104      -1.04057156       1.71307546
Fe       3.61327000       2.86500000       5.46497000       1.55763200       0.20514300      -0.56676300       1.47217789       0.32338673      -0.26233582
Fe       2.62400000       4.72550000       1.39174000      -1.08585200      -1.19598700       0.59645400      -1.37633815      -0.90686074       0.73114858
Fe       2.20317000       5.21693000       3.87451000      -3.92870900      -4.38103900      -4.92199500      -3.87768963      -4.38549243      -5.03239159
Fe       3.93082000       4.37819000       8.08226000       1.07616800       0.44807800      -0.99700400       1.06415569       0.26999784      -1.09894912
Fe       2.44961000       7.01753000       1.08943000       0.32119000      -1.55635000       3.27006500       0.46836968      -1.64757033       3.31973781
Fe       3.02500000       6.15780000       5.08193000      -1.08486800       1.64126100       3.95415400      -0.46866380       1.59063155       3.92616697
Fe       5.77712000       0.44616000       0.16142000      -2.43333700       0.07175000       4.13474700      -2.41034799       0.43580379       4.19997423
Fe       5.66964000       0.14892000       2.95259000      -3.67617900       1.90971100       0.12919700      -3.70055703       1.66935999       0.28113014
Fe       5.39484000       2.66317000       1.55162000       4.08183700      -3.39937100       3.88213200       3.94218739      -3.77707494       4.09286177
Fe       5.91309000       3.40423000       8.31953000       8.90196200       5.48305700      -2.72562400       8.71252118       5.53041901      -2.78515859
Fe       4.96126000       4.63305000       3.41410000      -3.60269200      -2.00302700       2.25051900      -3.84537081      -2.23810492       2.38969430
Fe       5.11347000       6.81217000       1.78872000      -0.87770500       0.06714300      -1.61156800      -0.65498064       0.11326410      -1.59460681
Fe       5.00950000       6.45991000       8.24507000      -2.30619500      -0.19808200      -1.52355700      -2.23652047      -0.04598125      -1.65043734
Fe       4.64263000       7.71190000       5.75084000       2.50156800       4.23919200      -1.55456800       2.57861325       4.25278846      -1.68741061
Fe       7.32285000       0.33022000       5.03535000      -0.99210900      -0.59745100       4.73628300      -1.04210110      -0.39034499       4.74034033
Fe       6.75330000       1.32958000       7.05071000       0.53851300       2.01290400       0.36400700       0.46326517       1.87889049       0.35654486
Fe       6.82686000       2.53028000       3.66692000      -0.08907100      -0.12987400      -0.26318300       0.04142093      -0.20293944      -0.24951349
Fe       6.83617000       5.56618000       0.59386000       1.74434500       1.47371700      -3.32847200       1.82561804       1.88176566      -3.42606008
Fe       8.27091000       4.29855000       2.87718000       3.23308900       0.33980500       1.37352500       3.13893595       0.19999837       1.39522725
Fe       6.58774000       4.90718000       4.97515000      -1.87594500       0.58060600      -0.05143700      -2.07536481       0.50696635      -0.65000323
Fe       6.86773000       6.79187000       3.27473000       1.52763600      -2.76254700       0.67579100       1.46546369      -2.45425406       0.34730567
Fe       8.09083000       8.29691000       0.84396000      -4.18921500      -1.95965200       9.56442300      -4.32875623      -2.31582007       9.53718103
Fe       6.62133000       7.67903000       7.47205000      -3.65417600       1.51975600      -3.32990400      -3.95317697       1.32723236      -3.46815636
B        3.45077000       6.81738000       6.75435000       2.04131500      -2.79808300       3.80923700       1.87777443      -2.77197397       3.97775973
B        4.67436000       1.10514000       4.73414000       0.75036200       0.95391600      -0.52852700       0.82965088       0.87333201      -0.40623253
B        6.18153000       2.20088000       5.47737000      -4.49435700      -3.20609500      -2.27763700      -4.67834431      -3.14714709      -2.38216517
B        5.08133000       4.10197000       6.35983000       0.35152900       0.25548900      -0.65354500       0.54730669       0.37439953      -0.62748078
B        4.48663000       4.29393000       1.40792000      -0.27448100       1.04603100       0.21283300      -0.19243511       1.19525414       0.24444643
B        4.96286000       5.88068000       6.14703000       0.60492000      -1.85032800       0.29314600       0.53043101      -1.92679202       0.16921826
B        8.17242000       5.65216000       5.55863000       1.00443800       0.65677900      -0.69824300       0.99211064       0.79958961      -0.32585973
B        7.98743000       6.92663000       6.60530000       5.86774900       2.58695800      -4.05103700       5.80228360       2.35460069      -3.76217334
B        7.10769000       5.72812000       6.91109000      -2.33709700      -3.34606800       1.34633400      -2.13281751      -3.40700825       1.70473225
B        7.81665000       6.81498000       8.33858000       5.04350100      -2.41043400       0.97359300       5.14193795      -2.67551458       0.58177495
Si       0.06983000       0.14925000       7.74742000       4.12649000       2.60901100      -8.87608100       4.06908744       2.60565480      -8.72559928
Si       1.93337000       2.41223000       3.74634000      10.14534600       2.98113100     -12.18526000      10.21947946       3.07490212     -12.00124057
Si       0.75978000       6.02813000       1.69309000      -4.13401100      -0.74920300       1.02787300      -4.14184033      -0.82976396       0.97877291
Si       2.22023000       5.10313000       7.16329000      -1.58663400       1.19675500      -1.89967800      -1.64122954       1.14464947      -1.92680582
Si       3.27754000       8.17117000       8.35443000       4.04667900       4.58101600      -2.24829100       3.93552088       4.59840664      -2.41275527
Si       4.48145000       2.18337000       8.34202000      -5.72220500      -5.96162700      -4.99603400      -5.54439452      -5.97289906      -5.11783620
Si       6.36439000       4.54151000       2.12641000       2.28764700      -2.33178900       1.39384200       2.50544391      -2.11302408       1.35543353
Si       4.52267000       6.51460000       3.75633000       0.42177200       5.22743800       1.25328700       0.12090681       5.31628751       1.33697654
Si       7.68278000       0.22257000       3.11016000      -0.17295300       4.89916800      -3.86478000      -0.26792408       4.81329015      -3.95361594
Si       7.35363000       3.38410000       6.13231000       4.40786200       1.27045000       2.62604800       4.35274432       1.43899666       2.93285071
54
Lattice="8.579999685 0.0 0.0 0.0 8.579999685 0.0 0.0 0.0 8.5799996" Properties=species:S:1:pos:R:3:REF_forces:R:3:MACE_forces:R:3 config_type=Fe34B10Si10 REF_energy=-354.71875992 MACE_energy=-355.3276733589852 pbc="T T T"
Fe       0.43313000       1.19321000       2.96848000       1.47291300       2.99028000       0.61180900       1.49478400       2.95989013       0.31879445
Fe       0.91365000       1.12516000       8.09995000       2.76260400      -2.00335600       1.20968300       2.42291888      -2.02911019       1.08246803
Fe       1.17142000       2.67870000       5.23446000      -1.90323000       6.04651700       0.58026800      -1.76531700       6.09872211       0.44032883
Fe       0.60772000       3.85484000       0.87278000       2.66909500       4.89444800       4.53699300       2.52809003       4.95168545       4.16785723
Fe       1.41565000       3.44858000       3.01161000      -0.29549500       2.03729500      -0.74017400      -0.09785163       1.91621081      -0.69065212
Fe       0.04226000       2.91249000       8.09734000      -3.39897200      -2.84207300      -2.69442200      -2.78484572      -2.83338954      -2.31545545
Fe       1.33282000       7.09057000       5.22634000      -0.45239700      -1.35392500       0.92503500      -0.22423379      -1.51712070       0.96811232
Fe       2.06045000       7.92051000       0.98063000      -3.11321000      -0.30108300      -2.49280600      -3.11001260      -0.40555960      -2.37811564
Fe       2.03627000       8.24295000       3.50701000      -1.42216600       4.38122900       0.88517600      -1.46034393       4.13711335       0.66886898
Fe       0.01253000       8.02686000       7.00667000       2.58679700       0.98610200     -11.80201700       2.44368784       0.92903855     -11.88069519
Fe       3.00353000       0.57289000       6.13981000      -1.03922300       0.18357300       0.93137300      -0.82404229       0.11284647       1.01243927
Fe       3.69949000       2.65196000       7.51811000       2.76433000      -4.34399200      -3.80269000       2.59252105      -4.11934265      -3.68863967
Fe       2.94478000       6.44154000       3.03987000       7.21319500      -3.66655800      -1.17614100       7.04733136      -3.47424715      -1.01277092
Fe       2.94309000       5.75189000       6.64956000      -6.24071800      -0.74678300       3.86021800      -6.50476956      -0.64939556       3.84385370
Fe       3.71160000       8.39321000       1.86324000       2.24845700      -0.43546600       0.28887200       2.18311158      -0.17214765       0.67781912
Fe       4.07810000       8.43915000       4.32840000       2.88035800       1.28304800      -0.49181300       2.86644883       1.37514534      -0.77115561
Fe       5.57499000       0.73262000       6.31633000      -3.12774100      -1.68249800      -0.98058200      -2.83934016      -1.66573033      -0.88554097
Fe       4.70712000       1.94493000       1.65492000      -2.04675700       4.97917500      -3.67899600      -2.11656494       4.75936077      -3.51141013
Fe       4.73401000       4.18392000       1.24748000       0.71501700       1.80608500      -0.06999200       0.69746947       2.02167669      -0.11003224
Fe       4.56687000       4.22266000       4.39618000       0.73801700       3.32591500      -2.10569900       0.48001260       3.15418692      -2.19192349
Fe       4.51224000       4.61167000       7.05684000       2.53211900      -0.41024200       0.53825400       2.98785437      -0.75473578       0.49320779
Fe       6.32808000       6.81945000       4.24288000      -3.20445400      -0.33519400      -1.28892300      -2.81556057      -0.25238144      -1.11933302
Fe       6.22240000       7.17309000       0.16230000      -3.30904600      -2.75215800       1.90373500      -3.48908530      -3.06590364       2.09249733
Fe       4.54224000       7.44382000       7.03838000       0.17895600      -5.02037800      -8.74618400       0.28067092      -5.25067468      -8.95533157
Fe       4.73272000       8.55832000       8.35561000      -0.10588400       8.96287400       6.54083400      -0.17995554       9.50410273       6.22705472
Fe       7.67285000       2.82429000       2.17742000      -2.12886900      -0.76272600      -2.06587500      -2.06848680      -0.80838261      -1.98664624
Fe       6.74071000       1.77406000       4.33655000       0.47479500       0.50025500      -0.42349800       0.08019458       0.46733057      -0.49022225
Fe       7.16362000       1.61896000       6.68131000       5.11373900       1.83737400       0.70818800       4.78723722       1.69420810       0.63462081
Fe       6.73653000       4.13840000       7.84564000       0.19062300       0.32905600       3.59274800       0.09918777       0.50582387       3.64182723
Fe       6.61248000       5.35948000       2.44590000       0.96755600      -0.77403900      -0.47053600       0.84509331      -0.68512602      -0.51255542
Fe       8.39074000       4.95678000       4.82580000       0.50677700       3.21370700       1.22596300       0.58490133       3.11076008       1.10343885
Fe       6.62275000       6.29700000       6.29237000       0.91106900      -0.58785400       1.74696000       0.79113911      -0.46636776       1.60891728
Fe       8.00875000       8.14674000       2.12563000      -1.25903800      -1.94608200      -3.37077000      -0.89284181      -1.94372234      -3.40679405
Fe       7.96861000       8.10559000       4.08816000       1.24434400       0.03207600       4.40361200       0.69769860      -0.02298693       4.51278146
B        3.14587000       1.61638000       2.59818000      -3.96044800      -1.57388800      -2.24367700      -3.97492624      -1.48581677      -2.00275145
B        4.07212000       1.93087000       3.78701000       0.55534200       0.12762300      -3.25123200       0.43432627       0.10154074      -3.23173008
B        2.24412000       1.90783000       4.05913000      -1.80380000      -9.70850100      -5.48536600      -1.83948283      -9.91115898      -5.58097037
B        2.90130000       3.06657000       4.45062000       2.48509300       7.60479000      -1.50334300       2.91748723       7.33420715      -1.48547397
B        2.82587000       3.80138000       5.80651000       0.21675600       2.27927400       3.92227300       0.34453203       2.12959217       3.83946759
B        2.60929000       5.04297000       1.66311000       0.12617300      -0.77075900      -0.46531300      -0.07226404      -0.75195461      -0.36313626
B        2.47198000       4.95014000       4.32601000      -0.76752800      -1.31946700       0.35153300      -0.81072087      -1.21935289       0.30780924
B        2.73354000       7.81887000       7.66829000      -1.47869400      -0.15377200       0.00458000      -1.53892648      -0.18022005       0.17658678
B        5.68071000       2.28134000       7.79544000      -0.95924500       0.41857400       1.11780500      -0.92378090       0.34512079       1.06533715
B        7.77536000       3.70665000       3.76574000      -0.44877700      -1.48394500      -0.38974400      -0.55270134      -1.40812703      -0.03191025
Si       0.79518000       0.92195000       5.77957000      -1.66645900      -4.94136200      -1.10925300      -1.62058691      -5.12269455      -0.94563816
Si       0.88055000       4.20706000       6.73551000       1.15626000       3.58432200      -0.32349000       1.09945412       3.78434934      -0.19334975
Si       1.15025000       6.44729000       2.43826000      -7.77651300      -1.83655100      -1.54918700      -7.91749935      -1.74390515      -1.72836637
Si       2.82820000       3.29548000       0.50208000      -4.05499500       1.58525200       5.32597100      -4.13536592       1.49057109       5.27742949
Si       4.14031000       6.38272000       0.30005000      -2.16949800      -2.44928300       2.57761000      -2.20380179      -2.51359312       2.57234917
Si       3.68345000       6.43010000       5.01209000       3.98893100       0.98565200      -2.13453700       3.85764693       1.18808073      -2.07244420
Si       5.73751000       0.59059000       2.53265000       5.08228400      -4.90021500       2.23852200       5.18004173      -4.93257278       2.49671966
Si       4.51163000       2.47994000       5.36819000       2.60737700      -2.86786400       7.12589500       2.76629591      -2.67045685       6.97672859
Si       6.43436000       3.75222000       5.86206000       1.38008400       0.66155200      -3.64612400       1.58939040       0.80092980      -3.77443421
Si       8.06432000       7.52318000       8.55473000       2.36409700      -3.06603600      11.34847700       2.66378085      -2.81631642      11.11016399
18
Lattice="6.5 0.0 0.0 0.0 6.5 0.0 0.0 0.0 6.5" Properties=species:S:1:pos:R:3:REF_forces:R:3:MACE_forces:R:3 config_type=Fe12B3Si3 REF_energy=-113.87843945 MACE_energy=-113.05453631377995 pbc="T T T"
Fe       5.40234000       5.43492000       1.53729000      -1.39532100       2.04028400       0.71142300      -1.15302768       1.97778517       0.69988013
Fe       2.09750000       2.10361000       0.54730000       2.35673700      -0.33103000       1.27254800       2.52763747      -0.09791788       1.09701160
Fe       2.84360000       1.73250000       3.81271000       2.28004000      -1.18251600      -0.27344700       2.19588845      -1.04005905      -0.15488812
Fe       0.77541000       4.93717000       1.04317000       1.56096300      -3.83372900       1.76362000       1.42659793      -3.61416446       1.48971698
Fe       0.07665000       3.70431000       3.74351000      -0.75952900      -0.39175400      -2.23189700      -1.01023734      -0.41920305      -2.29523529
Fe       4.77171000       3.58949000       4.78220000      -1.99219600      -4.62409700       0.48420500      -1.80078627      -4.60950630       0.42497148
Fe       4.12430000       1.49867000       1.46476000       0.29771700      -2.38794700       0.28396300       0.31570111      -2.66318648       0.12152745
Fe       0.95387000       5.17746000       5.28728000      -0.57085000      -0.50160400      -1.80733600      -0.94619501      -0.69874302      -1.30087376
Fe       1.93602000       3.09888000       2.36598000      -0.08855100       0.43128300      -0.27209000      -0.13774534       0.60977217      -0.40369417
Fe       5.69037000       1.28357000       4.20026000      -0.40866000      -0.49067900       0.18976600      -0.67293202      -0.26973444       0.17718198
Fe       1.94321000       2.86141000       5.39871000      -0.55906500       0.73218900      -1.80086600      -0.61220101       0.80306828      -1.84923732
Fe       4.33122000       5.38124000       5.25469000      -0.73272900       4.56545400       1.52017900      -0.70653927       4.41383481       1.53555267
B        0.37598000       1.64060000       1.21420000      -3.21263000       2.85095800       0.76078000      -3.09486923       2.70760107       0.91786643
B        1.88110000       4.04794000       3.96741000       2.48956600       2.45119300      -0.32261600       2.68934026       2.29758902      -0.38392197
B        3.63878000       0.94242000       5.41981000      -0.01444500       0.67937600       0.95779200       0.15730867       0.82110722       1.05846100
Si       1.19380000       0.26963000       0.19686000       0.54051800       0.24528300      -1.93219100       0.68292807       0.02214165      -1.91880206
Si       4.57825000       3.47658000       1.16117000       0.15934200       1.26766700      -0.81102600       0.19805132       1.42796504      -0.71428649
Si       1.09558000       0.76720000       2.75124000       0.04909300      -1.52033200       1.50719200      -0.05892011      -1.66834973       1.49876947
54
Lattice="8.579999685 0.0 0.0 0.0 8.579999685 0.0 0.0 0.0 8.5799996" Properties=species:S:1:pos:R:3:REF_forces:R:3:MACE_forces:R:3 config_type=Fe34B10Si10 REF_energy=-356.0869274 MACE_energy=-356.82151438269756 pbc="T T T"
Fe       0.92877000       1.08311000       2.12831000      -0.53214900      -1.15432400       0.53007800      -0.69319300      -1.24953820       0.39542722
Fe       1.12794000       0.45096000       7.37327000      -2.86345100       2.18226700       1.45805300      -2.86797264       2.02114592       1.46431974
Fe       0.91289000       3.61082000       1.96264000      -1.66570100       0.50807500      -4.76654600      -1.66052223       0.26274466      -4.75916453
Fe       0.97242000       3.25012000       3.83975000      -0.85629000      -1.23507100      -0.91491200      -1.08534168      -1.18546867      -0.41088206
Fe       1.43574000       3.84332000       5.84621000      -1.94378300      -0.72872400       4.94145300      -2.07601895      -0.52303124       4.71328588
Fe       0.45897000       5.99881000       1.32384000       1.86679900       1.45939200      -0.33976700       1.64322482       1.58072988      -0.19600414
Fe       0.05714000       6.25044000       6.01250000       0.66851500      -0.88142700       1.67028200       0.74619445      -0.74513944       1.80430119
Fe       1.87526000       7.05991000       7.27744000      -5.90957000       6.81146600       5.95768600      -5.77228906       7.19918641       5.93611446
Fe       4.21220000       0.80536000       3.81626000       0.44958900      -1.97725700       0.54591300       0.57249730      -1.91213081       0.43572441
Fe       2.64196000       0.75311000       5.88605000       0.80305000      -0.92688600      -1.50973400       0.61896226      -1.09697700      -1.56755498
Fe       2.51735000       4.27963000       7.86001000      -0.17185400       2.88247300       0.00075600       0.00281630       2.97387243       0.37928061
Fe       2.46175000       4.76211000       4.38544000       2.27245000       6.36429500      -0.60000700       2.25465329       6.39108124      -0.55205804
Fe       3.99132000       4.46692000       6.09268000      -0.21521200      -1.96607600      -0.25853400      -0.23450127      -2.14124300      -0.16103975
Fe       4.03283000       6.20484000       2.50717000       0.32509400      -1.83048700       1.07686200       0.44995773      -1.71892178       1.17462342
Fe       2.62183000       8.12097000       1.25125000      -5.45108600      -1.04608100      -0.88869000      -5.57840993      -1.02831008      -0.55696429
Fe       2.34208000       7.49949000       3.33705000      -1.45221900       0.10179900       1.96325000      -1.29327026       0.22904328       1.58514227
Fe       4.67554000       0.98699000       8.35162000       1.97529500       0.95938300       0.07305200       1.78409455       0.79492367       0.42713581
Fe       4.68615000       2.28426000       1.60336000       6.03713100       4.39249100       1.56082500       6.19679105       4.33774735       1.16248457
Fe       4.95897000       4.28949000       0.91503000       1.24258400       3.77490300      -1.07876200       0.64765037       3.43220389      -1.24262520
Fe       5.62605000       3.84953000       3.25301000      -4.56775200       3.43217100       2.09526400      -4.63200696       3.49280923       1.94318601
Fe       5.63153000       5.70233000       4.67966000       0.04558900       0.36352900      -0.74034800       0.09531597      -0.07404113      -0.61220397
Fe       5.00954000       6.14620000       6.89198000       4.51113600      -2.60361300       1.43664400       4.52400596      -2.43022496       1.37171762
Fe       5.34723000       7.32984000       0.56425000       3.41130600      -7.55812200      -7.44238600       3.32019718      -7.05167646      -7.27169479
Fe       4.57141000       8.20633000       1.67615000      -2.51651100       6.57056000       9.11650700      -2.58139587       6.18880562       8.70869309
Fe       5.67084000       7.83697000       6.02451000      -0.02983000       3.57151200       0.33120700      -0.08984467       3.73950250       0.40305165
Fe       7.65837000       1.05332000       0.64336000       1.95813700       2.93603900      -3.62028800       1.89027534       2.97494305      -3.49879193
Fe       7.23579000       1.49494000       3.62009000       0.88838800      -1.50203300       3.00240400       0.98128292      -1.61337942       3.04772936
Fe       6.96409000       1.59543000       6.70415000       0.40175100      -2.57633900      -0.54943900       0.53589420      -2.53346242      -0.51777740
Fe       6.97946000       3.05325000       2.27831000       3.01329100      -2.85779700      -7.80747400       2.49377500      -2.99676272      -7.21020141
Fe       7.05854000       3.62734000       7.13255000       0.94483300       2.42104600       2.56329500       1.05687540       2.45056132       2.49935884
Fe       7.47490000       4.49325000       0.92243000      -3.13561000       0.06366500       0.11142200      -2.92657891       0.42010358      -0.36147514
Fe       7.76499000       5.40883000       4.05655000       3.42051700      -2.49950500       1.10150300       3.49719155      -2.68040460       1.16036124
Fe       6.91686000       6.16423000       2.38917000      -4.34160700       0.52717700      -3.24358900      -4.29795237       0.65283516      -3.17873131
Fe       7.31773000       7.39473000       4.73130000      -1.41907300       3.06948200       1.38572900      -1.39603509       3.08454459       1.30770085
B        1.63947000       5.44017000       2.85377000      -1.37965300       1.67099600      -0.34434500      -1.43422840       1.76769943      -0.59042538
B        3.47444000       1.29905000       1.69513000      -6.04542900      -7.46227000      -1.52467000      -5.90475931      -7.26915378      -1.19205063
B        2.31673000       1.42955000       3.77944000      -1.85652800      -2.14982900       3.21956500      -1.76948516      -1.96883639       3.50307320
B        3.17088000       0.01260000       8.16689000      -2.14308300      -0.12737100      -3.63430700      -2.10105886       0.07569797      -3.58888461
B        2.48887000       2.23189000       2.44876000      -1.30373000       3.96631200      -0.94871100      -0.86670785       3.90097413      -1.24843937
B        3.55016000       3.21990000       0.17024000       2.13469500      -3.52588700       0.23974700       2.11621840      -3.42725025       0.17876774
B        3.12966000       3.07291000       4.24572000      -6.99085300       0.34377600      -0.16579100      -7.16754979       0.02769371      -0.34628510
B        2.38358000       5.95301000       6.34325000       2.25901800      -8.76611800      -6.31465800       2.26025493      -9.20453517      -6.52938803
B        4.46260000       2.62992000       4.23823000       7.08507900      -1.75449200       0.40993300       7.23113792      -1.71053783       0.46856344
B        7.51183000       3.59374000       3.85724000       1.49621300      -1.20378300       3.39561400       1.51161076      -1.11253649       3.32771372
Si       0.50050000       1.66927000       5.10425000      -1.02554400      -2.67263500       2.61432900      -0.86408195      -2.94497816       2.50350890
Si       0.41923000       4.50138000       8.15701000       0.82744200      -0.47721100      -2.57541600       1.06999734      -0.50136054      -2.80839854
Si       2.90131000       4.25049000       1.93860000       2.71957100       0.04497600      -0.88170100       2.94663004      -0.05931192      -1.13462278
Si       3.74353000       6.85388000       5.19884000      -1.20766000       1.80214700      -2.20114300      -1.10136842       1.94090318      -2.19414372
Si       3.54209000       6.47938000       8.21357000      -0.45014500      -1.75854100       4.24377300      -0.57862659      -2.00190061       4.43298313
Si       4.55252000       1.74669000       6.40118000       0.28733400       0.20348600      -1.69136000       0.28190748       0.18226873      -1.72892066
Si       5.87020000       3.30923000       5.41310000       1.93974000       0.55942400      -1.14043100       1.56208598       0.71892691      -1.17446023
Si       6.68392000       0.09389000       2.07850000      -2.78148600      -1.30329400       2.70552900      -2.46238941      -1.20911189       2.84333297
Si       7.30980000       7.36953000       0.08595000       4.18267400      -0.22507900      -1.67891000       4.12700718      -0.48265170      -1.67153390
Si       8.41387000       7.50606000       2.97540000       5.08859000       1.78741200      -0.88875800       5.01708295       2.03192883      -0.87285945
54
Lattice="8.579999685 0.0 0.0 0.0 8.579999685 0.0 0.0 0.0 8.5799996" Properties=species:S:1:pos:R:3:REF_forces:R:3:MACE_forces:R:3 config_type=Fe34B10Si10 REF_energy=-359.84864784 MACE_energy=-360.3011025970401 pbc="T T T"
Fe       0.39531000       2.37288000       0.87042000       3.27925500       2.43832800      -1.60261100       3.22782211       2.57859252      -1.73214368
Fe       0.75383000       1.65209000       3.11094000       1.30783500      -0.34615400      -0.09267000       1.25940998      -0.77936856       0.23608810
Fe       1.33201000       3.79282000       7.26231000      -2.40668100      -1.18131200       0.32245500      -2.55006788      -1.05879089       0.17326770
Fe       0.64436000       4.41396000       2.97573000       2.42004200      -2.26182600       0.38963900       2.47966302      -2.04499087       0.21787743
Fe       0.14751000       6.42079000       3.51005000      -3.07002100       1.32407200      -2.30638400      -3.11644806       1.38016410      -2.54643705