54
Lattice="8.579999685 0.0 0.0 0.0 8.579999685 0.0 0.0 0.0 8.5799996" Properties=species:S:1:pos:R:3:REF_forces:R:3:MACE_forces:R:3 config_type=Fe34B10Si10 REF_energy=-352.89092233 MACE_energy=-352.8295622655465 pbc="T T T"
Fe       1.46495000       0.71583000       1.12880000       3.73230100      -3.41607500      -3.76209700       3.76942171      -3.54723501      -3.74474223
Fe       0.56244000       2.07917000       1.96452000      -3.31290700       4.06628900       2.54508600      -3.39388652       4.14759667       2.43206861
Fe       0.86636000       2.12990000       5.00906000     -10.85567700      -2.87102900      12.20968700     -10.93460375      -2.94580280      12.15002437
Fe       0.24697000       2.61233000       7.83061000      -0.37811800      -2.03816900      -0.08744800      -0.30400671      -2.04661369       0.15235577
Fe       0.35437000       4.66395000       8.16447000      -1.30300600       1.62250000       0.84662400      -1.36542604       1.61810661       0.81163145
Fe       0.83543000       8.00840000       3.01492000       5.54921000      -2.55787300       0.52513800       5.52626925      -2.62889952       0.45126672
Fe       2.03952000       7.84431000       6.63062000      -4.28706100       1.82495200      -1.68802900      -4.04505079       2.01429398      -1.69081889
Fe       3.34318000       0.11090000       2.96052000      -0.46571400      -0.35056300       0.37864800      -0.45600741      -0.19273409       0.50049888
Fe       3.26317000       2.11539000       1.48699000      -3.47884800      -0.03222100       0.61542300      -3.32494747      -0.29010345       0.23864273
Fe       4.14313000       2.75755000       3.31065000      -0.71378000      -2.73118300       1.93004800      -0.65969161      -2.50373984       1.93365267
Fe       2.55051000       2.67374000       7.19710000      -2.55215900      -0.93589000       1.77261600      -2.30430402      -1.03550644       1.71430438
Fe       3.61327000       2.86500000       5.46497000       1.55763200       0.20514300      -0.56676300       1.47327099       0.31438056      -0.26628217
Fe       2.62400000       4.72550000       1.39174000      -1.08585200      -1.19598700       0.59645400      -1.37785452      -0.89791734       0.74260626
Fe       2.20317000       5.21693000       3.87451000      -3.92870900      -4.38103900      -4.92199500      -3.90909453      -4.41578261      -5.07195569
Fe       3.93082000       4.37819000       8.08226000       1.07616800       0.44807800      -0.99700400       1.08617878       0.26961666      -1.09930113
Fe       2.44961000       7.01753000       1.08943000       0.32119000      -1.55635000       3.27006500       0.47226754      -1.65088328       3.31322492
Fe       3.02500000       6.15780000       5.08193000      -1.08486800       1.64126100       3.95415400      -0.46383546       1.63214666       3.98003806
Fe       5.77712000       0.44616000       0.16142000      -2.43333700       0.07175000       4.13474700      -2.39195557       0.42717499       4.18397389
Fe       5.66964000       0.14892000       2.95259000      -3.67617900       1.90971100       0.12919700      -3.69727894       1.66467170       0.28236075
Fe       5.39484000       2.66317000       1.55162000       4.08183700      -3.39937100       3.88213200       3.91508211      -3.77384934       4.07882574
Fe       5.91309000       3.40423000       8.31953000       8.90196200       5.48305700      -2.72562400       8.70940268       5.52883385      -2.78497337
Fe       4.96126000       4.63305000       3.41410000      -3.60269200      -2.00302700       2.25051900      -3.83813868      -2.23356802       2.38443067
Fe       5.11347000       6.81217000       1.78872000      -0.87770500       0.06714300      -1.61156800      -0.64446212       0.10299738      -1.60882199
Fe       5.00950000       6.45991000       8.24507000      -2.30619500      -0.19808200      -1.52355700      -2.24696445      -0.05275849      -1.62358567
Fe       4.64263000       7.71190000       5.75084000       2.50156800       4.23919200      -1.55456800       2.57520675       4.24282146      -1.69682312
Fe       7.32285000       0.33022000       5.03535000      -0.99210900      -0.59745100       4.73628300      -1.04605836      -0.38134175       4.73260747
Fe       6.75330000       1.32958000       7.05071000       0.53851300       2.01290400       0.36400700       0.45027550       1.87107622       0.36058619
Fe       6.82686000       2.53028000       3.66692000      -0.08907100      -0.12987400      -0.26318300       0.04821179      -0.20283636      -0.24987107
Fe       6.83617000       5.56618000       0.59386000       1.74434500       1.47371700      -3.32847200       1.81855448       1.90103160      -3.41002738
Fe       8.27091000       4.29855000       2.87718000       3.23308900       0.33980500       1.37352500       3.14201479       0.19631714       1.41052137
Fe       6.58774000       4.90718000       4.97515000      -1.87594500       0.58060600      -0.05143700      -2.08594514       0.50232278      -0.66763913
Fe       6.86773000       6.79187000       3.27473000       1.52763600      -2.76254700       0.67579100       1.45089682      -2.44301187       0.34083443
Fe       8.09083000       8.29691000       0.84396000      -4.18921500      -1.95965200       9.56442300      -4.33688346      -2.31045021       9.51352583
Fe       6.62133000       7.67903000       7.47205000      -3.65417600       1.51975600      -3.32990400      -3.94048099       1.33576868      -3.46292658
B        3.45077000       6.81738000       6.75435000       2.04131500      -2.79808300       3.80923700       1.87797924      -2.77515361       3.96476310
B        4.67436000       1.10514000       4.73414000       0.75036200       0.95391600      -0.52852700       0.83157175       0.87721202      -0.40034555
B        6.18153000       2.20088000       5.47737000      -4.49435700      -3.20609500      -2.27763700      -4.68681046      -3.13889214      -2.36947063
B        5.08133000       4.10197000       6.35983000       0.35152900       0.25548900      -0.65354500       0.56163400       0.36527707      -0.63305653
B        4.48663000       4.29393000       1.40792000      -0.27448100       1.04603100       0.21283300      -0.17667510       1.19963678       0.24612452
B        4.96286000       5.88068000       6.14703000       0.60492000      -1.85032800       0.29314600       0.54802107      -1.92182066       0.18526624
B        8.17242000       5.65216000       5.55863000       1.00443800       0.65677900      -0.69824300       0.98328212       0.80301505      -0.35914988
B        7.98743000       6.92663000       6.60530000       5.86774900       2.58695800      -4.05103700       5.81747701       2.38616344      -3.76243042
B        7.10769000       5.72812000       6.91109000      -2.33709700      -3.34606800       1.34633400      -2.15148683      -3.43052423       1.74513026
B        7.81665000       6.81498000       8.33858000       5.04350100      -2.41043400       0.97359300       5.14917833      -2.67780151       0.57270295
Si       0.06983000       0.14925000       7.74742000       4.12649000       2.60901100      -8.87608100       4.07919930       2.59470358      -8.70804182
Si       1.93337000       2.41223000       3.74634000      10.14534600       2.98113100     -12.18526000      10.19987837       3.07971732     -11.97882174
Si       0.75978000       6.02813000       1.69309000      -4.13401100      -0.74920300       1.02787300      -4.13354458      -0.82476132       0.97555144
Si       2.22023000       5.10313000       7.16329000      -1.58663400       1.19675500      -1.89967800      -1.64111100       1.15111220      -1.94655156
Si       3.27754000       8.17117000       8.35443000       4.04667900       4.58101600      -2.24829100       3.94300157       4.60436366      -2.41287226
Si       4.48145000       2.18337000       8.34202000      -5.72220500      -5.96162700      -4.99603400      -5.55592209      -5.97329720      -5.10643741
Si       6.36439000       4.54151000       2.12641000       2.28764700      -2.33178900       1.39384200       2.48759395      -2.10670973       1.35308515
Si       4.52267000       6.51460000       3.75633000       0.42177200       5.22743800       1.25328700       0.12470139       5.32884291       1.33066005
Si       7.68278000       0.22257000       3.11016000      -0.17295300       4.89916800      -3.86478000      -0.27110193       4.79545697      -3.95995459
Si       7.35363000       3.38410000       6.13231000       4.40786200       1.27045000       2.62604800       4.34295725       1.44733660       2.93363594
54
Lattice="8.579999685 0.0 0.0 0.0 8.579999685 0.0 0.0 0.0 8.5799996" Properties=species:S:1:pos:R:3:REF_forces:R:3:MACE_forces:R:3 config_type=Fe34B10Si10 REF_energy=-354.71875992 MACE_energy=-354.9457159455652 pbc="T T T"
Fe       0.43313000       1.19321000       2.96848000       1.47291300       2.99028000       0.61180900       1.50810898       2.96697229       0.32245648
Fe       0.91365000       1.12516000       8.09995000       2.76260400      -2.00335600       1.20968300       2.41891022      -2.05949604       1.08159378
Fe       1.17142000       2.67870000       5.23446000      -1.90323000       6.04651700       0.58026800      -1.75984747       6.09480664       0.43880894
Fe       0.60772000       3.85484000       0.87278000       2.66909500       4.89444800       4.53699300       2.51619967       4.93795541       4.16047650
Fe       1.41565000       3.44858000       3.01161000      -0.29549500       2.03729500      -0.74017400      -0.09656868       1.90338707      -0.69577296
Fe       0.04226000       2.91249000       8.09734000      -3.39897200      -2.84207300      -2.69442200      -2.79231904      -2.80736707      -2.28669170
Fe       1.33282000       7.09057000       5.22634000      -0.45239700      -1.35392500       0.92503500      -0.22405874      -1.51008557       0.96086071
Fe       2.06045000       7.92051000       0.98063000      -3.11321000      -0.30108300      -2.49280600      -3.07699036      -0.40448218      -2.34712149
Fe       2.03627000       8.24295000       3.50701000      -1.42216600       4.38122900       0.88517600      -1.44194397       4.13502514       0.67004739
Fe       0.01253000       8.02686000       7.00667000       2.58679700       0.98610200     -11.80201700       2.44979337       0.93747483     -11.85119619
Fe       3.00353000       0.57289000       6.13981000      -1.03922300       0.18357300       0.93137300      -0.82885720       0.10381303       1.00598432
Fe       3.69949000       2.65196000       7.51811000       2.76433000      -4.34399200      -3.80269000       2.59713691      -4.10859778      -3.69005188
Fe       2.94478000       6.44154000       3.03987000       7.21319500      -3.66655800      -1.17614100       7.04940283      -3.46166180      -1.00896707
Fe       2.94309000       5.75189000       6.64956000      -6.24071800      -0.74678300       3.86021800      -6.50535033      -0.65605417       3.83618561
Fe       3.71160000       8.39321000       1.86324000       2.24845700      -0.43546600       0.28887200       2.15176763      -0.17972106       0.66772460
Fe       4.07810000       8.43915000       4.32840000       2.88035800       1.28304800      -0.49181300       2.86026534       1.39160490      -0.78064615
Fe       5.57499000       0.73262000       6.31633000      -3.12774100      -1.68249800      -0.98058200      -2.84011514      -1.66220893      -0.86224950
Fe       4.70712000       1.94493000       1.65492000      -2.04675700       4.97917500      -3.67899600      -2.09282805       4.75004259      -3.54282517
Fe       4.73401000       4.18392000       1.24748000       0.71501700       1.80608500      -0.06999200       0.69102654       2.00731583      -0.11335230
Fe       4.56687000       4.22266000       4.39618000       0.73801700       3.32591500      -2.10569900       0.45358577       3.14064072      -2.18844537
Fe       4.51224000       4.61167000       7.05684000       2.53211900      -0.41024200       0.53825400       2.97686911      -0.74743518       0.49164035
Fe       6.32808000       6.81945000       4.24288000      -3.20445400      -0.33519400      -1.28892300      -2.81814886      -0.25972380      -1.13079020
Fe       6.22240000       7.17309000       0.16230000      -3.30904600      -2.75215800       1.90373500      -3.47987546      -3.07540843       2.08969767
Fe       4.54224000       7.44382000       7.03838000       0.17895600      -5.02037800      -8.74618400       0.27166391      -5.26000298      -8.96388407
Fe       4.73272000       8.55832000       8.35561000      -0.10588400       8.96287400       6.54083400      -0.16945227       9.51207702       6.24241291
Fe       7.67285000       2.82429000       2.17742000      -2.12886900      -0.76272600      -2.06587500      -2.06168417      -0.79698371      -1.99852157
Fe       6.74071000       1.77406000       4.33655000       0.47479500       0.50025500      -0.42349800       0.08314034       0.47437767      -0.49509366
Fe       7.16362000       1.61896000       6.68131000       5.11373900       1.83737400       0.70818800       4.79039231       1.70079521       0.63604427
Fe       6.73653000       4.13840000       7.84564000       0.19062300       0.32905600       3.59274800       0.09590933       0.51323501       3.64688550
Fe       6.61248000       5.35948000       2.44590000       0.96755600      -0.77403900      -0.47053600       0.84705220      -0.69488382      -0.51242853
Fe       8.39074000       4.95678000       4.82580000       0.50677700       3.21370700       1.22596300       0.56719575       3.10669375       1.10717963
Fe       6.62275000       6.29700000       6.29237000       0.91106900      -0.58785400       1.74696000       0.78467009      -0.46469207       1.61037793
Fe       8.00875000       8.14674000       2.12563000      -1.25903800      -1.94608200      -3.37077000      -0.88607849      -1.93577402      -3.40204452
Fe       7.96861000       8.10559000       4.08816000       1.24434400       0.03207600       4.40361200       0.69849799      -0.03187445       4.49677328
B        3.14587000       1.61638000       2.59818000      -3.96044800      -1.57388800      -2.24367700      -3.98157553      -1.48115189      -1.98178473
B        4.07212000       1.93087000       3.78701000       0.55534200       0.12762300      -3.25123200       0.43732022       0.07419728      -3.26434216
B        2.24412000       1.90783000       4.05913000      -1.80380000      -9.70850100      -5.48536600      -1.85062634      -9.89881441      -5.57027370
B        2.90130000       3.06657000       4.45062000       2.48509300       7.60479000      -1.50334300       2.89813057       7.35803807      -1.45001382
B        2.82587000       3.80138000       5.80651000       0.21675600       2.27927400       3.92227300       0.35226878       2.13421746       3.82963411
B        2.60929000       5.04297000       1.66311000       0.12617300      -0.77075900      -0.46531300      -0.08354833      -0.74510614      -0.35600434
B        2.47198000       4.95014000       4.32601000      -0.76752800      -1.31946700       0.35153300      -0.80607785      -1.23159436       0.28662608
B        2.73354000       7.81887000       7.66829000      -1.47869400      -0.15377200       0.00458000      -1.54018439      -0.18792939       0.16768101
B        5.68071000       2.28134000       7.79544000      -0.95924500       0.41857400       1.11780500      -0.91421788       0.34266628       1.06882563
B        7.77536000       3.70665000       3.76574000      -0.44877700      -1.48394500      -0.38974400      -0.54392033      -1.40419273      -0.02760180
Si       0.79518000       0.92195000       5.77957000      -1.66645900      -4.94136200      -1.10925300      -1.61973215      -5.13148793      -0.95139174
Si       0.88055000       4.20706000       6.73551000       1.15626000       3.58432200      -0.32349000       1.10325173       3.79388209      -0.18048857
Si       1.15025000       6.44729000       2.43826000      -7.77651300      -1.83655100      -1.54918700      -7.91994415      -1.75338809      -1.73276875
Si       2.82820000       3.29548000       0.50208000      -4.05499500       1.58525200       5.32597100      -4.14377232       1.50275291       5.27699000
Si       4.14031000       6.38272000       0.30005000      -2.16949800      -2.44928300       2.57761000      -2.19249697      -2.51783879       2.56844530
Si       3.68345000       6.43010000       5.01209000       3.98893100       0.98565200      -2.13453700       3.86187521       1.19256781      -2.06850271
Si       5.73751000       0.59059000       2.53265000       5.08228400      -4.90021500       2.23852200       5.19675969      -4.94363374       2.49891822
Si       4.51163000       2.47994000       5.36819000       2.60737700      -2.86786400       7.12589500       2.77159029      -2.65153292       6.97865777
Si       6.43436000       3.75222000       5.86206000       1.38008400       0.66155200      -3.64612400       1.58668868       0.81010570      -3.78126655
Si       8.06432000       7.52318000       8.55473000       2.36409700      -3.06603600      11.34847700       2.65074105      -2.82152125      11.09359322
18
Lattice="6.5 0.0 0.0 0.0 6.5 0.0 0.0 0.0 6.5" Properties=species:S:1:pos:R:3:REF_forces:R:3:MACE_forces:R:3 config_type=Fe12B3Si3 REF_energy=-113.87843945 MACE_energy=-113.32841555076692 pbc="T T T"
Fe       5.40234000       5.43492000       1.53729000      -1.39532100       2.04028400       0.71142300      -1.19504798       2.01625912       0.71569641
Fe       2.09750000       2.10361000       0.54730000       2.35673700      -0.33103000       1.27254800       2.52666543      -0.11263692       1.09315149
Fe       2.84360000       1.73250000       3.81271000       2.28004000      -1.18251600      -0.27344700       2.20573644      -1.05706061      -0.15442414
Fe       0.77541000       4.93717000       1.04317000       1.56096300      -3.83372900       1.76362000       1.47403650      -3.64550938       1.48494709
Fe       0.07665000       3.70431000       3.74351000      -0.75952900      -0.39175400      -2.23189700      -0.98226262      -0.40372857      -2.29710256
Fe       4.77171000       3.58949000       4.78220000      -1.99219600      -4.62409700       0.48420500      -1.80989310      -4.63216408       0.43543339
Fe       4.12430000       1.49867000       1.46476000       0.29771700      -2.38794700       0.28396300       0.31688666      -2.68511050       0.14282749
Fe       0.95387000       5.17746000       5.28728000      -0.57085000      -0.50160400      -1.80733600      -0.94740334      -0.69607927      -1.30947863
Fe       1.93602000       3.09888000       2.36598000      -0.08855100       0.43128300      -0.27209000      -0.11865967       0.61640131      -0.38581464
Fe       5.69037000       1.28357000       4.20026000      -0.40866000      -0.49067900       0.18976600      -0.64208488      -0.27267556       0.14897152
Fe       1.94321000       2.86141000       5.39871000      -0.55906500       0.73218900      -1.80086600      -0.64032721       0.84166820      -1.85729714
Fe       4.33122000       5.38124000       5.25469000      -0.73272900       4.56545400       1.52017900      -0.73862227       4.43710440       1.52920033
B        0.37598000       1.64060000       1.21420000      -3.21263000       2.85095800       0.76078000      -3.12597109       2.71516224       0.94054755
B        1.88110000       4.04794000       3.96741000       2.48956600       2.45119300      -0.32261600       2.68877097       2.28286412      -0.40059305
B        3.63878000       0.94242000       5.41981000      -0.01444500       0.67937600       0.95779200       0.15784308       0.80779718       1.03643030
Si       1.19380000       0.26963000       0.19686000       0.54051800       0.24528300      -1.93219100       0.68482756       0.02913412      -1.92365735
Si       4.57825000       3.47658000       1.16117000       0.15934200       1.26766700      -0.81102600       0.19698580       1.42057626      -0.71323427
Si       1.09558000       0.76720000       2.75124000       0.04909300      -1.52033200       1.50719200      -0.05148027      -1.66200206       1.51439619
54
Lattice="8.579999685 0.0 0.0 0.0 8.579999685 0.0 0.0 0.0 8.5799996" Properties=species:S:1:pos:R:3:REF_forces:R:3:MACE_forces:R:3 config_type=Fe34B10Si10 REF_energy=-356.0869274 MACE_energy=-356.3909960231665 pbc="T T T"
Fe       0.92877000       1.08311000       2.12831000      -0.53214900      -1.15432400       0.53007800      -0.69128075      -1.24908081       0.38476904
Fe       1.12794000       0.45096000       7.37327000      -2.86345100       2.18226700       1.45805300      -2.86020752       2.01840314       1.46151513
Fe       0.91289000       3.61082000       1.96264000      -1.66570100       0.50807500      -4.76654600      -1.67028359       0.24845058      -4.74742283
Fe       0.97242000       3.25012000       3.83975000      -0.85629000      -1.23507100      -0.91491200      -1.07677551      -1.16197614      -0.43844157
Fe       1.43574000       3.84332000       5.84621000      -1.94378300      -0.72872400       4.94145300      -2.07196645      -0.51187319       4.71688296
Fe       0.45897000       5.99881000       1.32384000       1.86679900       1.45939200      -0.33976700       1.62781941       1.56941560      -0.20978105
Fe       0.05714000       6.25044000       6.01250000       0.66851500      -0.88142700       1.67028200       0.74904161      -0.74332966       1.81544631
Fe       1.87526000       7.05991000       7.27744000      -5.90957000       6.81146600       5.95768600      -5.78320140       7.19376047       5.91519607
Fe       4.21220000       0.80536000       3.81626000       0.44958900      -1.97725700       0.54591300       0.58129843      -1.90961017       0.42780788
Fe       2.64196000       0.75311000       5.88605000       0.80305000      -0.92688600      -1.50973400       0.62675493      -1.09486176      -1.55703597
Fe       2.51735000       4.27963000       7.86001000      -0.17185400       2.88247300       0.00075600      -0.00719830       2.98159243       0.38848680
Fe       2.46175000       4.76211000       4.38544000       2.27245000       6.36429500      -0.60000700       2.26664950       6.40109833      -0.53369080
Fe       3.99132000       4.46692000       6.09268000      -0.21521200      -1.96607600      -0.25853400      -0.24361418      -2.12759538      -0.15883432
Fe       4.03283000       6.20484000       2.50717000       0.32509400      -1.83048700       1.07686200       0.45680180      -1.69779732       1.17670375
Fe       2.62183000       8.12097000       1.25125000      -5.45108600      -1.04608100      -0.88869000      -5.57238544      -1.01305018      -0.54722486
Fe       2.34208000       7.49949000       3.33705000      -1.45221900       0.10179900       1.96325000      -1.30234507       0.22610675       1.58221519
Fe       4.67554000       0.98699000       8.35162000       1.97529500       0.95938300       0.07305200       1.81568010       0.79395715       0.45705962
Fe       4.68615000       2.28426000       1.60336000       6.03713100       4.39249100       1.56082500       6.20009117       4.32505472       1.15899670
Fe       4.95897000       4.28949000       0.91503000       1.24258400       3.77490300      -1.07876200       0.62482816       3.40330936      -1.23035368
Fe       5.62605000       3.84953000       3.25301000      -4.56775200       3.43217100       2.09526400      -4.64888692       3.48218224       1.94979395
Fe       5.63153000       5.70233000       4.67966000       0.04558900       0.36352900      -0.74034800       0.11996109      -0.08367929      -0.61359414
Fe       5.00954000       6.14620000       6.89198000       4.51113600      -2.60361300       1.43664400       4.51326952      -2.43410945       1.35775387
Fe       5.34723000       7.32984000       0.56425000       3.41130600      -7.55812200      -7.44238600       3.31047614      -7.08915878      -7.31524697
Fe       4.57141000       8.20633000       1.67615000      -2.51651100       6.57056000       9.11650700      -2.59323701       6.23230367       8.74116127
Fe       5.67084000       7.83697000       6.02451000      -0.02983000       3.57151200       0.33120700      -0.08387053       3.75086115       0.40619032
Fe       7.65837000       1.05332000       0.64336000       1.95813700       2.93603900      -3.62028800       1.89557130       2.98291407      -3.49758031
Fe       7.23579000       1.49494000       3.62009000       0.88838800      -1.50203300       3.00240400       0.98449207      -1.60417927       3.02498781
Fe       6.96409000       1.59543000       6.70415000       0.40175100      -2.57633900      -0.54943900       0.53471543      -2.52803557      -0.51930987
Fe       6.97946000       3.05325000       2.27831000       3.01329100      -2.85779700      -7.80747400       2.50898562      -3.01373057      -7.19962161
Fe       7.05854000       3.62734000       7.13255000       0.94483300       2.42104600       2.56329500       1.06435021       2.44827075       2.50558040
Fe       7.47490000       4.49325000       0.92243000      -3.13561000       0.06366500       0.11142200      -2.92656923       0.42388610      -0.35889572
Fe       7.76499000       5.40883000       4.05655000       3.42051700      -2.49950500       1.10150300       3.47659901      -2.66341676       1.16447843
Fe       6.91686000       6.16423000       2.38917000      -4.34160700       0.52717700      -3.24358900      -4.28498749       0.64913575      -3.17247662
Fe       7.31773000       7.39473000       4.73130000      -1.41907300       3.06948200       1.38572900      -1.38524150       3.07477328       1.29279274
B        1.63947000       5.44017000       2.85377000      -1.37965300       1.67099600      -0.34434500      -1.42106528       1.76416085      -0.57815466
B        3.47444000       1.29905000       1.69513000      -6.04542900      -7.46227000      -1.52467000      -5.88739320      -7.27421963      -1.20002966
B        2.31673000       1.42955000       3.77944000      -1.85652800      -2.14982900       3.21956500      -1.78389921      -1.97191168       3.51870606
B        3.17088000       0.01260000       8.16689000      -2.14308300      -0.12737100      -3.63430700      -2.12059822       0.06000434      -3.57663289
B        2.48887000       2.23189000       2.44876000      -1.30373000       3.96631200      -0.94871100      -0.86581415       3.90979468      -1.24981612
B        3.55016000       3.21990000       0.17024000       2.13469500      -3.52588700       0.23974700       2.08460378      -3.42138817       0.15133371
B        3.12966000       3.07291000       4.24572000      -6.99085300       0.34377600      -0.16579100      -7.16983958       0.00424840      -0.35609171
B        2.38358000       5.95301000       6.34325000       2.25901800      -8.76611800      -6.31465800       2.25747464      -9.20189454      -6.50748658
B        4.46260000       2.62992000       4.23823000       7.08507900      -1.75449200       0.40993300       7.23914751      -1.68844261       0.45965356
B        7.51183000       3.59374000       3.85724000       1.49621300      -1.20378300       3.39561400       1.51300518      -1.11282134       3.34083804
Si       0.50050000       1.66927000       5.10425000      -1.02554400      -2.67263500       2.61432900      -0.87312148      -2.95484326       2.49017323
Si       0.41923000       4.50138000       8.15701000       0.82744200      -0.47721100      -2.57541600       1.08496827      -0.51791344      -2.81071887
Si       2.90131000       4.25049000       1.93860000       2.71957100       0.04497600      -0.88170100       2.95666315      -0.06656323      -1.14770258
Si       3.74353000       6.85388000       5.19884000      -1.20766000       1.80214700      -2.20114300      -1.10184957       1.92466684      -2.19974949
Si       3.54209000       6.47938000       8.21357000      -0.45014500      -1.75854100       4.24377300      -0.58428543      -1.99371621       4.43962292
Si       4.55252000       1.74669000       6.40118000       0.28733400       0.20348600      -1.69136000       0.28253391       0.18260625      -1.74491235
Si       5.87020000       3.30923000       5.41310000       1.93974000       0.55942400      -1.14043100       1.56027716       0.71953726      -1.19040659
Si       6.68392000       0.09389000       2.07850000      -2.78148600      -1.30329400       2.70552900      -2.46021746      -1.20493780       2.84651132
Si       7.30980000       7.36953000       0.08595000       4.18267400      -0.22507900      -1.67891000       4.12765996      -0.47253415      -1.66720964
Si       8.41387000       7.50606000       2.97540000       5.08859000       1.78741200      -0.88875800       5.00641543       2.03617619      -0.84623563
54
Lattice="8.579999685 0.0 0.0 0.0 8.579999685 0.0 0.0 0.0 8.5799996" Properties=species:S:1:pos:R:3:REF_forces:R:3:MACE_forces:R:3 config_type=Fe34B10Si10 REF_energy=-359.84864784 MACE_energy=-359.9039657779818 pbc="T T T"
Fe       0.39531000       2.37288000       0.87042000       3.27925500       2.43832800      -1.60261100       3.23616779       2.54094797      -1.72215841
Fe       0.75383000       1.65209000       3.11094000       1.30783500      -0.34615400      -0.09267000       1.25740189      -0.77631338       0.24205549
Fe       1.33201000       3.79282000       7.26231000      -2.40668100      -1.18131200       0.32245500      -2.55474554      -1.05432432       0.16026662
Fe       0.64436000       4.41396000       2.97573000       2.42004200      -2.26182600       0.38963900       2.47337494      -2.03069608       0.21399109
Fe       0.14751000       6.42079000       3.51005000      -3.07002100       1.32407200      -2.30638400      -3.10483074       1.38336549      -2.55642401