54
Lattice="8.579999685 0.0 0.0 0.0 8.579999685 0.0 0.0 0.0 8.5799996" Properties=species:S:1:pos:R:3:REF_forces:R:3:MACE_forces:R:3 config_type=Fe34B10Si10 REF_energy=-352.89092233 MACE_energy=-352.36503039134055 pbc="T T T"
Fe       1.46495000       0.71583000       1.12880000       3.73230100      -3.41607500      -3.76209700       3.45599425      -3.15924851      -3.00944178
Fe       0.56244000       2.07917000       1.96452000      -3.31290700       4.06628900       2.54508600      -3.26685722       3.60953654       2.23649173
Fe       0.86636000       2.12990000       5.00906000     -10.85567700      -2.87102900      12.20968700     -10.90329784      -2.78737257      12.46638389
Fe       0.24697000       2.61233000       7.83061000      -0.37811800      -2.03816900      -0.08744800      -0.41209126      -1.83881940       0.05383922
Fe       0.35437000       4.66395000       8.16447000      -1.30300600       1.62250000       0.84662400      -1.25336755       1.54197399       0.93302019
Fe       0.83543000       8.00840000       3.01492000       5.54921000      -2.55787300       0.52513800       5.66843018      -2.85003355       0.40834824
Fe       2.03952000       7.84431000       6.63062000      -4.28706100       1.82495200      -1.68802900      -4.03872063       1.83281466      -1.64839608
Fe       3.34318000       0.11090000       2.96052000      -0.46571400      -0.35056300       0.37864800      -0.63485739      -0.05438513       0.30176701
Fe       3.26317000       2.11539000       1.48699000      -3.47884800      -0.03222100       0.61542300      -3.41465763      -0.12977249       0.08799636
Fe       4.14313000       2.75755000       3.31065000      -0.71378000      -2.73118300       1.93004800      -0.54494870      -2.23865419       1.73831496
Fe       2.55051000       2.67374000       7.19710000      -2.55215900      -0.93589000       1.77261600      -2.29496970      -0.85456622       1.69791293
Fe       3.61327000       2.86500000       5.46497000       1.55763200       0.20514300      -0.56676300       1.22286181       0.18957191      -0.22557480
Fe       2.62400000       4.72550000       1.39174000      -1.08585200      -1.19598700       0.59645400      -1.37078046      -0.98490797       0.64350385
Fe       2.20317000       5.21693000       3.87451000      -3.92870900      -4.38103900      -4.92199500      -3.78477865      -4.37638906      -5.18859704
Fe       3.93082000       4.37819000       8.08226000       1.07616800       0.44807800      -0.99700400       1.05954372       0.31074500      -0.82925938
Fe       2.44961000       7.01753000       1.08943000       0.32119000      -1.55635000       3.27006500       0.61823710      -1.47379844       3.31538178
Fe       3.02500000       6.15780000       5.08193000      -1.08486800       1.64126100       3.95415400      -0.33087364       1.76989667       4.37625614
Fe       5.77712000       0.44616000       0.16142000      -2.43333700       0.07175000       4.13474700      -2.27053358       0.50237494       4.31149761
Fe       5.66964000       0.14892000       2.95259000      -3.67617900       1.90971100       0.12919700      -3.62515077       1.90899485       0.34685896
Fe       5.39484000       2.66317000       1.55162000       4.08183700      -3.39937100       3.88213200       3.97094804      -3.73243430       4.10610625
Fe       5.91309000       3.40423000       8.31953000       8.90196200       5.48305700      -2.72562400       8.54520379       5.34290295      -3.31092849
Fe       4.96126000       4.63305000       3.41410000      -3.60269200      -2.00302700       2.25051900      -3.61024813      -2.38636728       2.66183917
Fe       5.11347000       6.81217000       1.78872000      -0.87770500       0.06714300      -1.61156800      -0.75389145       0.32708800      -1.72343898
Fe       5.00950000       6.45991000       8.24507000      -2.30619500      -0.19808200      -1.52355700      -2.33780848      -0.20271888      -1.79215559
Fe       4.64263000       7.71190000       5.75084000       2.50156800       4.23919200      -1.55456800       2.43435203       4.42858252      -1.79635122
Fe       7.32285000       0.33022000       5.03535000      -0.99210900      -0.59745100       4.73628300      -1.13342728      -0.60572046       4.47111687
Fe       6.75330000       1.32958000       7.05071000       0.53851300       2.01290400       0.36400700       0.55086315       1.90382261       0.66265213
Fe       6.82686000       2.53028000       3.66692000      -0.08907100      -0.12987400      -0.26318300       0.11049839      -0.21435074      -0.09776452
Fe       6.83617000       5.56618000       0.59386000       1.74434500       1.47371700      -3.32847200       1.59892939       1.63470324      -3.37733403
Fe       8.27091000       4.29855000       2.87718000       3.23308900       0.33980500       1.37352500       3.26303350       0.24551252       1.37771767
Fe       6.58774000       4.90718000       4.97515000      -1.87594500       0.58060600      -0.05143700      -2.25197111       0.71230824      -0.74867964
Fe       6.86773000       6.79187000       3.27473000       1.52763600      -2.76254700       0.67579100       1.63890509      -2.73301662       0.34306583
Fe       8.09083000       8.29691000       0.84396000      -4.18921500      -1.95965200       9.56442300      -4.20366381      -2.21178733      10.00103173
Fe       6.62133000       7.67903000       7.47205000      -3.65417600       1.51975600      -3.32990400      -4.04984501       0.96617160      -4.09479682
B        3.45077000       6.81738000       6.75435000       2.04131500      -2.79808300       3.80923700       1.97342040      -3.11732865       4.25613742
B        4.67436000       1.10514000       4.73414000       0.75036200       0.95391600      -0.52852700       0.72497992       0.74203823      -0.41299095
B        6.18153000       2.20088000       5.47737000      -4.49435700      -3.20609500      -2.27763700      -4.45243627      -2.99610431      -2.60757655
B        5.08133000       4.10197000       6.35983000       0.35152900       0.25548900      -0.65354500       0.54300396       0.62819677      -0.38972390
B        4.48663000       4.29393000       1.40792000      -0.27448100       1.04603100       0.21283300      -0.19118468       1.16576417      -0.05160737
B        4.96286000       5.88068000       6.14703000       0.60492000      -1.85032800       0.29314600       0.54322086      -1.99492429       0.41603050
B        8.17242000       5.65216000       5.55863000       1.00443800       0.65677900      -0.69824300       1.39781092       0.38143397      -0.33793596
B        7.98743000       6.92663000       6.60530000       5.86774900       2.58695800      -4.05103700       5.50769214       2.66186091      -3.38337041
B        7.10769000       5.72812000       6.91109000      -2.33709700      -3.34606800       1.34633400      -2.63973589      -3.47633931       1.50246721
B        7.81665000       6.81498000       8.33858000       5.04350100      -2.41043400       0.97359300       5.00104078      -2.79404141       0.25235787
Si       0.06983000       0.14925000       7.74742000       4.12649000       2.60901100      -8.87608100       4.12740075       2.66939279      -8.99285625
Si       1.93337000       2.41223000       3.74634000      10.14534600       2.98113100     -12.18526000      10.36644116       3.00605072     -12.22921799
Si       0.75978000       6.02813000       1.69309000      -4.13401100      -0.74920300       1.02787300      -4.14362035      -0.85336410       0.87316512
Si       2.22023000       5.10313000       7.16329000      -1.58663400       1.19675500      -1.89967800      -1.59563102       1.05050032      -1.71776974
Si       3.27754000       8.17117000       8.35443000       4.04667900       4.58101600      -2.24829100       4.11717873       4.55697643      -2.04376796
Si       4.48145000       2.18337000       8.34202000      -5.72220500      -5.96162700      -4.99603400      -5.69907420      -5.47052784      -5.11296750
Si       6.36439000       4.54151000       2.12641000       2.28764700      -2.33178900       1.39384200       2.27454957      -2.11938749       1.36750084
Si       4.52267000       6.51460000       3.75633000       0.42177200       5.22743800       1.25328700       0.30770224       5.25833708       1.18491571
Si       7.68278000       0.22257000       3.11016000      -0.17295300       4.89916800      -3.86478000      -0.11558897       4.97782152      -4.17601745
Si       7.35363000       3.38410000       6.13231000       4.40786200       1.27045000       2.62604800       4.30176983       1.33098738       2.90484322
54
Lattice="8.579999685 0.0 0.0 0.0 8.579999685 0.0 0.0 0.0 8.5799996" Properties=species:S:1:pos:R:3:REF_forces:R:3:MACE_forces:R:3 config_type=Fe34B10Si10 REF_energy=-354.71875992 MACE_energy=-353.6644927601015 pbc="T T T"
Fe       0.43313000       1.19321000       2.96848000       1.47291300       2.99028000       0.61180900       1.45281978       2.84658062       0.45359404
Fe       0.91365000       1.12516000       8.09995000       2.76260400      -2.00335600       1.20968300       2.41039684      -1.72070708       1.17567182
Fe       1.17142000       2.67870000       5.23446000      -1.90323000       6.04651700       0.58026800      -2.30398333       6.68138683       0.35383322
Fe       0.60772000       3.85484000       0.87278000       2.66909500       4.89444800       4.53699300       2.37607065       5.10680169       4.41501086
Fe       1.41565000       3.44858000       3.01161000      -0.29549500       2.03729500      -0.74017400      -0.11309997       2.12920200      -1.18088068
Fe       0.04226000       2.91249000       8.09734000      -3.39897200      -2.84207300      -2.69442200      -2.76150163      -3.03337821      -2.65836165
Fe       1.33282000       7.09057000       5.22634000      -0.45239700      -1.35392500       0.92503500      -0.42286791      -1.26837034       0.77214078
Fe       2.06045000       7.92051000       0.98063000      -3.11321000      -0.30108300      -2.49280600      -3.48320507      -0.45792736      -2.53206996
Fe       2.03627000       8.24295000       3.50701000      -1.42216600       4.38122900       0.88517600      -1.90148239       4.10638855       0.68695875
Fe       0.01253000       8.02686000       7.00667000       2.58679700       0.98610200     -11.80201700       2.46068451       0.75142088     -11.99788401
Fe       3.00353000       0.57289000       6.13981000      -1.03922300       0.18357300       0.93137300      -0.77082880       0.19366517       1.05461979
Fe       3.69949000       2.65196000       7.51811000       2.76433000      -4.34399200      -3.80269000       2.29517224      -3.98095832      -3.65529807
Fe       2.94478000       6.44154000       3.03987000       7.21319500      -3.66655800      -1.17614100       7.16856830      -3.77962806      -0.97197053
Fe       2.94309000       5.75189000       6.64956000      -6.24071800      -0.74678300       3.86021800      -6.09430814      -0.61718638       4.48758441
Fe       3.71160000       8.39321000       1.86324000       2.24845700      -0.43546600       0.28887200       2.64503193      -0.17505914       0.80399598
Fe       4.07810000       8.43915000       4.32840000       2.88035800       1.28304800      -0.49181300       3.07825746       1.09048764      -0.70252752
Fe       5.57499000       0.73262000       6.31633000      -3.12774100      -1.68249800      -0.98058200      -2.77725397      -1.91090905      -1.31734884
Fe       4.70712000       1.94493000       1.65492000      -2.04675700       4.97917500      -3.67899600      -1.67054488       4.67431349      -3.76106776
Fe       4.73401000       4.18392000       1.24748000       0.71501700       1.80608500      -0.06999200       0.61760578       1.77017611      -0.16094578
Fe       4.56687000       4.22266000       4.39618000       0.73801700       3.32591500      -2.10569900       0.38900859       3.67392297      -2.17248932
Fe       4.51224000       4.61167000       7.05684000       2.53211900      -0.41024200       0.53825400       2.67795851      -0.54914780       0.34292203
Fe       6.32808000       6.81945000       4.24288000      -3.20445400      -0.33519400      -1.28892300      -2.38406191      -0.23869101      -0.96892998
Fe       6.22240000       7.17309000       0.16230000      -3.30904600      -2.75215800       1.90373500      -3.39923803      -2.97139031       2.08597933
Fe       4.54224000       7.44382000       7.03838000       0.17895600      -5.02037800      -8.74618400       0.12547771      -5.51558482      -8.55462180
Fe       4.73272000       8.55832000       8.35561000      -0.10588400       8.96287400       6.54083400      -0.37237721       9.06489579       6.09235314
Fe       7.67285000       2.82429000       2.17742000      -2.12886900      -0.76272600      -2.06587500      -2.12951413      -0.80106899      -1.77736940
Fe       6.74071000       1.77406000       4.33655000       0.47479500       0.50025500      -0.42349800       0.23420075       0.50763022      -0.65356444
Fe       7.16362000       1.61896000       6.68131000       5.11373900       1.83737400       0.70818800       4.73468900       1.61040454       0.80838050
Fe       6.73653000       4.13840000       7.84564000       0.19062300       0.32905600       3.59274800       0.17149747       0.65062495       3.67308043
Fe       6.61248000       5.35948000       2.44590000       0.96755600      -0.77403900      -0.47053600       0.75297659      -0.42240161      -0.17795847
Fe       8.39074000       4.95678000       4.82580000       0.50677700       3.21370700       1.22596300       0.64443274       2.77363079       1.06345228
Fe       6.62275000       6.29700000       6.29237000       0.91106900      -0.58785400       1.74696000       0.64272601      -0.40064132       1.55627472
Fe       8.00875000       8.14674000       2.12563000      -1.25903800      -1.94608200      -3.37077000      -1.16312591      -1.61134439      -3.76532229
Fe       7.96861000       8.10559000       4.08816000       1.24434400       0.03207600       4.40361200       0.38052651      -0.08063648       4.89155345
B        3.14587000       1.61638000       2.59818000      -3.96044800      -1.57388800      -2.24367700      -4.09059346      -1.15295763      -1.91960994
B        4.07212000       1.93087000       3.78701000       0.55534200       0.12762300      -3.25123200       0.64317601       0.10649054      -3.22913526
B        2.24412000       1.90783000       4.05913000      -1.80380000      -9.70850100      -5.48536600      -1.96110757     -10.11641398      -5.28749546
B        2.90130000       3.06657000       4.45062000       2.48509300       7.60479000      -1.50334300       3.47146542       6.98345542      -1.40854788
B        2.82587000       3.80138000       5.80651000       0.21675600       2.27927400       3.92227300       0.28949828       2.39373872       3.64930773
B        2.60929000       5.04297000       1.66311000       0.12617300      -0.77075900      -0.46531300      -0.03816404      -0.78206363      -0.44645782
B        2.47198000       4.95014000       4.32601000      -0.76752800      -1.31946700       0.35153300      -0.82184540      -1.05861895       0.34917955
B        2.73354000       7.81887000       7.66829000      -1.47869400      -0.15377200       0.00458000      -1.45356168      -0.08460374      -0.12306728
B        5.68071000       2.28134000       7.79544000      -0.95924500       0.41857400       1.11780500      -0.92005638       0.43302201       1.05292917
B        7.77536000       3.70665000       3.76574000      -0.44877700      -1.48394500      -0.38974400      -0.44246603      -1.58604012      -0.40453204
Si       0.79518000       0.92195000       5.77957000      -1.66645900      -4.94136200      -1.10925300      -1.57355044      -4.76590573      -1.02132631
Si       0.88055000       4.20706000       6.73551000       1.15626000       3.58432200      -0.32349000       1.25913574       3.50304302      -0.08510465
Si       1.15025000       6.44729000       2.43826000      -7.77651300      -1.83655100      -1.54918700      -7.75791812      -1.97247837      -1.60044322
Si       2.82820000       3.29548000       0.50208000      -4.05499500       1.58525200       5.32597100      -3.87272092       1.40275327       5.27160405
Si       4.14031000       6.38272000       0.30005000      -2.16949800      -2.44928300       2.57761000      -2.29197259      -2.64903412       2.44964761
Si       3.68345000       6.43010000       5.01209000       3.98893100       0.98565200      -2.13453700       3.83238191       1.11257964      -2.20842881
Si       5.73751000       0.59059000       2.53265000       5.08228400      -4.90021500       2.23852200       5.35239918      -4.68342170       2.70792614
Si       4.51163000       2.47994000       5.36819000       2.60737700      -2.86786400       7.12589500       2.58445156      -2.79558577       7.09563417
Si       6.43436000       3.75222000       5.86206000       1.38008400       0.66155200      -3.64612400       1.33454990       0.52391974      -3.54966765
Si       8.06432000       7.52318000       8.55473000       2.36409700      -3.06603600      11.34847700       2.94619056      -2.90838019      10.99879284
18
Lattice="6.5 0.0 0.0 0.0 6.5 0.0 0.0 0.0 6.5" Properties=species:S:1:pos:R:3:REF_forces:R:3:MACE_forces:R:3 config_type=Fe12B3Si3 REF_energy=-113.87843945 MACE_energy=-117.66916233828829 pbc="T T T"
Fe       5.40234000       5.43492000       1.53729000      -1.39532100       2.04028400       0.71142300      -1.74695588       2.00484418       0.77983338
Fe       2.09750000       2.10361000       0.54730000       2.35673700      -0.33103000       1.27254800       2.40663502      -0.69382302       1.80310747
Fe       2.84360000       1.73250000       3.81271000       2.28004000      -1.18251600      -0.27344700       2.02341699      -1.21522020      -0.15285654
Fe       0.77541000       4.93717000       1.04317000       1.56096300      -3.83372900       1.76362000       1.68295017      -3.64316923       1.37162771
Fe       0.07665000       3.70431000       3.74351000      -0.75952900      -0.39175400      -2.23189700      -1.23372087      -0.48286999      -2.18432979
Fe       4.77171000       3.58949000       4.78220000      -1.99219600      -4.62409700       0.48420500      -1.33585602      -3.99547481       0.48068058
Fe       4.12430000       1.49867000       1.46476000       0.29771700      -2.38794700       0.28396300       0.19857606      -2.95104440       0.37104761
Fe       0.95387000       5.17746000       5.28728000      -0.57085000      -0.50160400      -1.80733600      -0.51458936      -0.44003029      -1.21204517
Fe       1.93602000       3.09888000       2.36598000      -0.08855100       0.43128300      -0.27209000      -0.10178348       1.01302485      -0.90817466
Fe       5.69037000       1.28357000       4.20026000      -0.40866000      -0.49067900       0.18976600      -0.65286971      -0.60413480       0.22414627
Fe       1.94321000       2.86141000       5.39871000      -0.55906500       0.73218900      -1.80086600      -0.68480409       0.97205552      -1.66080984
Fe       4.33122000       5.38124000       5.25469000      -0.73272900       4.56545400       1.52017900      -0.59621245       3.94166425       1.35598147
B        0.37598000       1.64060000       1.21420000      -3.21263000       2.85095800       0.76078000      -2.77464010       2.43837890       0.08191972
B        1.88110000       4.04794000       3.96741000       2.48956600       2.45119300      -0.32261600       2.31529193       2.45111472      -0.20448195
B        3.63878000       0.94242000       5.41981000      -0.01444500       0.67937600       0.95779200       0.35234998       0.60460856       0.96321524
Si       1.19380000       0.26963000       0.19686000       0.54051800       0.24528300      -1.93219100       0.67271199       0.42290582      -1.74495626
Si       4.57825000       3.47658000       1.16117000       0.15934200       1.26766700      -0.81102600      -0.05118025       1.57351376      -0.78400594
Si       1.09558000       0.76720000       2.75124000       0.04909300      -1.52033200       1.50719200       0.04068005      -1.39634382       1.42010071
54
Lattice="8.579999685 0.0 0.0 0.0 8.579999685 0.0 0.0 0.0 8.5799996" Properties=species:S:1:pos:R:3:REF_forces:R:3:MACE_forces:R:3 config_type=Fe34B10Si10 REF_energy=-356.0869274 MACE_energy=-355.08945694229493 pbc="T T T"
Fe       0.92877000       1.08311000       2.12831000      -0.53214900      -1.15432400       0.53007800      -0.86274155      -1.03025356       0.57196415
Fe       1.12794000       0.45096000       7.37327000      -2.86345100       2.18226700       1.45805300      -2.45433563       1.91689965       1.26826607
Fe       0.91289000       3.61082000       1.96264000      -1.66570100       0.50807500      -4.76654600      -2.06569745       0.59085030      -4.74754197
Fe       0.97242000       3.25012000       3.83975000      -0.85629000      -1.23507100      -0.91491200      -0.61450588      -1.38297369       0.06178828
Fe       1.43574000       3.84332000       5.84621000      -1.94378300      -0.72872400       4.94145300      -1.96661332      -0.63490005       4.45409254
Fe       0.45897000       5.99881000       1.32384000       1.86679900       1.45939200      -0.33976700       2.08204855       1.48449344      -0.06646421
Fe       0.05714000       6.25044000       6.01250000       0.66851500      -0.88142700       1.67028200       0.33777265      -0.95435296       1.26112681
Fe       1.87526000       7.05991000       7.27744000      -5.90957000       6.81146600       5.95768600      -5.49596501       7.21327582       6.16266205
Fe       4.21220000       0.80536000       3.81626000       0.44958900      -1.97725700       0.54591300       0.57883290      -1.79521095       0.39678021
Fe       2.64196000       0.75311000       5.88605000       0.80305000      -0.92688600      -1.50973400       0.40465564      -0.83997918      -1.54712749
Fe       2.51735000       4.27963000       7.86001000      -0.17185400       2.88247300       0.00075600      -0.33455682       2.55268488      -0.08120180
Fe       2.46175000       4.76211000       4.38544000       2.27245000       6.36429500      -0.60000700       2.29513649       5.88730660      -0.96029573
Fe       3.99132000       4.46692000       6.09268000      -0.21521200      -1.96607600      -0.25853400      -0.45131559      -2.14753287      -0.47759063
Fe       4.03283000       6.20484000       2.50717000       0.32509400      -1.83048700       1.07686200       0.36060869      -1.96865508       1.17055417
Fe       2.62183000       8.12097000       1.25125000      -5.45108600      -1.04608100      -0.88869000      -5.40444262      -1.29242835      -0.64266321
Fe       2.34208000       7.49949000       3.33705000      -1.45221900       0.10179900       1.96325000      -1.35893008       0.20260533       2.01782511
Fe       4.67554000       0.98699000       8.35162000       1.97529500       0.95938300       0.07305200       1.96893152       1.26772169       0.30169752
Fe       4.68615000       2.28426000       1.60336000       6.03713100       4.39249100       1.56082500       6.83441005       4.35770929       1.01523179
Fe       4.95897000       4.28949000       0.91503000       1.24258400       3.77490300      -1.07876200       1.07859763       3.83943819      -1.43926985
Fe       5.62605000       3.84953000       3.25301000      -4.56775200       3.43217100       2.09526400      -4.58256167       3.50542040       1.77239961
Fe       5.63153000       5.70233000       4.67966000       0.04558900       0.36352900      -0.74034800       0.03607259       0.20588342      -0.69906829
Fe       5.00954000       6.14620000       6.89198000       4.51113600      -2.60361300       1.43664400       4.08338739      -2.31173683       1.41115481
Fe       5.34723000       7.32984000       0.56425000       3.41130600      -7.55812200      -7.44238600       3.43653510      -7.28566870      -7.47466724
Fe       4.57141000       8.20633000       1.67615000      -2.51651100       6.57056000       9.11650700      -2.61910572       5.80091436       9.35527710
Fe       5.67084000       7.83697000       6.02451000      -0.02983000       3.57151200       0.33120700      -0.07168545       3.63573928       0.11958560
Fe       7.65837000       1.05332000       0.64336000       1.95813700       2.93603900      -3.62028800       1.65358448       2.74128038      -3.55333349
Fe       7.23579000       1.49494000       3.62009000       0.88838800      -1.50203300       3.00240400       0.82494706      -1.39486371       3.12602876
Fe       6.96409000       1.59543000       6.70415000       0.40175100      -2.57633900      -0.54943900       0.40767068      -2.55823681      -0.39103310
Fe       6.97946000       3.05325000       2.27831000       3.01329100      -2.85779700      -7.80747400       2.57756455      -3.39947111      -6.98396697
Fe       7.05854000       3.62734000       7.13255000       0.94483300       2.42104600       2.56329500       0.94817521       2.53173067       2.25171569
Fe       7.47490000       4.49325000       0.92243000      -3.13561000       0.06366500       0.11142200      -2.87802829       0.48565146      -0.47703234
Fe       7.76499000       5.40883000       4.05655000       3.42051700      -2.49950500       1.10150300       3.55006103      -2.55190067       1.19131414
Fe       6.91686000       6.16423000       2.38917000      -4.34160700       0.52717700      -3.24358900      -4.69035683       0.48891232      -3.14547529
Fe       7.31773000       7.39473000       4.73130000      -1.41907300       3.06948200       1.38572900      -1.53093513       2.73768044       1.79220088
B        1.63947000       5.44017000       2.85377000      -1.37965300       1.67099600      -0.34434500      -1.69587234       1.87134610      -0.59041881
B        3.47444000       1.29905000       1.69513000      -6.04542900      -7.46227000      -1.52467000      -6.35092842      -7.44883187      -1.51562479
B        2.31673000       1.42955000       3.77944000      -1.85652800      -2.14982900       3.21956500      -1.83284482      -2.08864288       3.63375992
B        3.17088000       0.01260000       8.16689000      -2.14308300      -0.12737100      -3.63430700      -1.92946906       0.05932023      -3.92694431
B        2.48887000       2.23189000       2.44876000      -1.30373000       3.96631200      -0.94871100      -0.87987778       4.01687488      -0.91585971
B        3.55016000       3.21990000       0.17024000       2.13469500      -3.52588700       0.23974700       2.03946067      -3.30923950       0.81685385
B        3.12966000       3.07291000       4.24572000      -6.99085300       0.34377600      -0.16579100      -7.31470327       0.11995996       0.02214338
B        2.38358000       5.95301000       6.34325000       2.25901800      -8.76611800      -6.31465800       2.23562095      -8.84396335      -6.53508146
B        4.46260000       2.62992000       4.23823000       7.08507900      -1.75449200       0.40993300       7.10118459      -1.75759884       0.28805793
B        7.51183000       3.59374000       3.85724000       1.49621300      -1.20378300       3.39561400       1.55959363      -0.98648022       3.41361655
Si       0.50050000       1.66927000       5.10425000      -1.02554400      -2.67263500       2.61432900      -0.81989045      -2.72986954       2.47420719
Si       0.41923000       4.50138000       8.15701000       0.82744200      -0.47721100      -2.57541600       1.07168005      -0.23129412      -2.83957407
Si       2.90131000       4.25049000       1.93860000       2.71957100       0.04497600      -0.88170100       2.99019622       0.02466663      -1.30614107
Si       3.74353000       6.85388000       5.19884000      -1.20766000       1.80214700      -2.20114300      -1.02263905       1.98916848      -2.39526715
Si       3.54209000       6.47938000       8.21357000      -0.45014500      -1.75854100       4.24377300      -0.37655681      -1.98464654       4.59832139
Si       4.55252000       1.74669000       6.40118000       0.28733400       0.20348600      -1.69136000       0.12655982      -0.05672870      -1.48049858
Si       5.87020000       3.30923000       5.41310000       1.93974000       0.55942400      -1.14043100       1.92496979       1.02409661      -0.85880307
Si       6.68392000       0.09389000       2.07850000      -2.78148600      -1.30329400       2.70552900      -2.51211837      -0.98385031       2.67709957
Si       7.30980000       7.36953000       0.08595000       4.18267400      -0.22507900      -1.67891000       4.21723987      -0.53974638      -1.87058526
Si       8.41387000       7.50606000       2.97540000       5.08859000       1.78741200      -0.88875800       5.39117966       1.95742595      -0.70419515
54
Lattice="8.579999685 0.0 0.0 0.0 8.579999685 0.0 0.0 0.0 8.5799996" Properties=species:S:1:pos:R:3:REF_forces:R:3:MACE_forces:R:3 config_type=Fe34B10Si10 REF_energy=-359.84864784 MACE_energy=-359.24564779862726 pbc="T T T"
Fe       0.39531000       2.37288000       0.87042000       3.27925500       2.43832800      -1.60261100       3.07404975       2.75153484      -1.91878296
Fe       0.75383000       1.65209000       3.11094000       1.30783500      -0.34615400      -0.09267000       0.96171132      -0.52966001       0.40375142
Fe       1.33201000       3.79282000       7.26231000      -2.40668100      -1.18131200       0.32245500      -2.39378048      -0.93360397      -0.03422750
Fe       0.64436000       4.41396000       2.97573000       2.42004200      -2.26182600       0.38963900       2.46097921      -1.90379606       0.06776258
Fe       0.14751000       6.42079000       3.51005000      -3.07002100       1.32407200      -2.30638400      -2.56695810       1.18582988      -2.29920265