1
Lattice="18.0 0.0 0.0 0.0 18.0 0.0 0.0 0.0 18.0" Properties=species:S:1:pos:R:3:REF_forces:R:3 config_type=IsolatedAtom REF_energy=-3.283081 pbc="T T T"
Fe       0.00000000       0.00000000       0.00000000       0.00000000       0.00000000       0.00000000
1
Lattice="18.0 0.0 0.0 0.0 18.0 0.0 0.0 0.0 18.0" Properties=species:S:1:pos:R:3:REF_forces:R:3 config_type=IsolatedAtom REF_energy=-0.81049333 pbc="T T T"
Si       0.00000000       0.00000000       0.00000000       0.00000000       0.00000000       0.00000000
1
Lattice="18.0 0.0 0.0 0.0 18.0 0.0 0.0 0.0 18.0" Properties=species:S:1:pos:R:3:REF_forces:R:3 config_type=IsolatedAtom REF_energy=-0.27559471 pbc="T T T"
B        0.00000000       0.00000000       0.00000000       0.00000000       0.00000000       0.00000000
10
Lattice="9.0 0.0 0.0 0.0 9.0 0.0 0.0 0.0 9.0" Properties=species:S:1:pos:R:3:REF_forces:R:3 config_type=Fe5B1Si4 REF_energy=-44.58554767 pbc="T T T"
Fe       3.50176000       8.99673000       3.09396000       0.95435000      -0.45803800       0.21474200
Fe       6.43801000       1.81225000       6.74888000       1.10970900      -0.66476800      -1.17007400
Fe       2.41193000       0.16613000       4.88253000       0.30913200      -0.89996000       0.17011800
Fe       8.52164000       3.22369000       0.34244000      -0.58790500      -0.47306700      -0.37861700
Fe       5.66627000       2.92739000       3.87411000       4.77509600       2.80733600       2.40000400
B        5.18442000       1.13758000       3.40139000      -0.73957100       0.38065100       0.44676100
Si       7.10242000       1.59600000       3.97694000       2.28029300      -3.67324000       1.18634800
Si       7.70822000       8.86280000       6.25904000      -0.73207200       1.84563600      -0.48266000
Si       3.91832000       3.09724000       3.40175000      -6.85054500      -1.08983400      -1.75602400
Si       3.63788000       6.78794000       4.49538000      -0.51848800       2.22528500      -0.63059800
10
Lattice="9.0 0.0 0.0 0.0 9.0 0.0 0.0 0.0 9.0" Properties=species:S:1:pos:R:3:REF_forces:R:3 config_type=Fe5B1Si4 REF_energy=-48.18464377 pbc="T T T"
Fe       7.72908000       2.13801000       3.67226000      -0.72140700       1.38590200       0.18439100
Fe       2.56544000       0.37534000       3.55582000       0.62580800       1.02854400      -0.21951900
Fe       5.84797000       2.87648000       5.04299000      -0.51992300      -1.03088200      -1.60504700
Fe       2.00259000       1.62931000       5.21757000       0.16709900       0.68697000      -1.46342200
Fe       3.04146000       3.03902000       3.03634000       2.84541400      -0.11631900       1.57660000
B        4.26036000       4.67435000       3.72342000       0.68065500      -0.16735200      -1.56590600
Si       6.34493000       4.18783000       3.43892000      -0.40775000      -0.06673100      -0.63978400
Si       0.98363000       2.81182000       2.85911000      -2.44913300      -1.45501500       1.18349900
Si       4.97672000       0.35177000       3.88032000      -0.44220000       1.58116100       0.17191700
Si       4.49316000       6.21641000       2.06194000       0.22143900      -1.84627800       2.37727300
10
Lattice="11.0 0.0 0.0 0.0 11.0 0.0 0.0 0.0 11.0" Properties=species:S:1:pos:R:3:REF_forces:R:3 config_type=Fe5B1Si4 REF_energy=-11.58855075 pbc="T T T"
Fe       8.76471000       0.00946000       6.88513000      -0.22819700       0.12237200      -0.55543600
Fe       2.63377000       1.33277000       3.45207000      -0.77576300      -0.08136400      -0.00027500
Fe       9.34605000       7.55219000       3.04608000      -1.57311900      -1.03473800      -0.15487700
Fe       6.36389000       7.12183000       3.09324000       1.09683100       0.04242100      -0.12816300
Fe       1.35866000       0.14865000       4.85122000       1.24564900       1.43265900      -2.24078300
B        0.74424000       4.87887000       2.93866000      -1.13359500      -0.78566000      -1.94809000
Si       0.41110000       1.07145000       2.73658000       1.34178700       0.50456200      -0.25058800
Si       0.39736000       3.73439000       0.50956000      -1.07905800      -1.52336200       2.18566600
Si       9.29283000       2.08457000       0.89045000       2.55214100       0.43757800       0.40081500
Si       2.63700000       1.37373000       1.21644000      -1.44667700       0.88553200       2.69173100
10
Lattice="11.0 0.0 0.0 0.0 11.0 0.0 0.0 0.0 11.0" Properties=species:S:1:pos:R:3:REF_forces:R:3 config_type=Fe5B1Si4 REF_energy=-38.14997444 pbc="T T T"
Fe       0.55560000       8.19331000       7.06229000       0.60700700      -1.87987400       0.40247700
Fe       0.49601000       2.54487000       7.78872000      -1.62914400       1.44061600       0.72816300
Fe      10.07332000       3.88379000       9.42053000       1.49055100       0.96476400      -0.05327700
Fe       4.45932000       9.07691000       6.11289000       0.24660800      -0.52821700      -0.02378300
Fe       9.54221000       0.53076000       0.28158000      -0.51209300       1.49842300      -0.39218500
B       10.69505000       5.70310000       8.40523000       0.71876200      -1.05034900      -0.26069900
Si       9.01619000       3.31434000       7.76349000       0.22101700      -0.39376100      -0.82483600
Si       1.50005000       6.10934000       7.36041000      -1.47354600       0.22179200       0.82993100
Si       8.29851000       3.23195000      10.75936000       1.25238600      -0.70606300      -0.69191000
Si       3.13187000      10.62875000       6.05729000      -0.92154800       0.43266900       0.28612000
10
Lattice="11.0 0.0 0.0 0.0 11.0 0.0 0.0 0.0 11.0" Properties=species:S:1:pos:R:3:REF_forces:R:3 config_type=Fe5B1Si4 REF_energy=-39.54850766 pbc="T T T"
Fe       7.32260000       2.25273000       9.60151000      -0.81068000       1.95759200       1.52424100
Fe       5.30456000       3.18059000       0.62935000       3.59407800       0.60301100       0.45004200
Fe       5.70290000       5.32015000      10.23784000      -0.55638700      -0.41691100      -0.58631200
Fe       7.71673000       4.32859000       0.10409000      -1.51783000      -0.48364700      -0.94636500
Fe       5.73415000       7.17747000       8.80515000      -0.19559000      -2.26799700       1.43769300
B        3.53335000       2.44513000       3.14396000       1.80602500       1.42469000       1.46529900
Si       3.05847000       4.99331000       9.56994000       1.58460600       0.22347600       0.29443400
Si       4.66874000       2.05360000       5.35076000      -1.23296500       0.33348000      -2.53096100
Si       3.35109000       3.37679000       0.23198000      -2.51854700       0.79060000      -0.76406600
Si       4.02675000       4.41289000       2.41329000      -0.15270900      -2.16429400      -0.34400600
10
Lattice="11.0 0.0 0.0 0.0 11.0 0.0 0.0 0.0 11.0" Properties=species:S:1:pos:R:3:REF_forces:R:3 config_type=Fe5B1Si4 REF_energy=-30.22050192 pbc="T T T"
Fe       7.51027000      10.11418000       2.18625000      -1.69790900       1.72973200      -1.19644900
Fe       6.52329000       1.24583000       0.98294000       2.87583100      -1.88416600       0.59355300
Fe       8.50320000       0.98219000       3.23617000       1.14940800      -1.93965800      -1.01181700
Fe       8.81725000       8.60479000       1.96311000       1.70133000      -1.33465300       0.85149000
Fe       9.16079000       2.26416000       1.64872000      -0.92180800       1.06168500      -1.01542500
B        8.94441000       4.16897000      10.47399000      -1.12511400       0.54375800       0.63670800
Si      10.42398000       4.23416000       1.05026000      -1.52480000      -0.05410100      -1.01659500
Si       7.56198000       2.31002000       4.34386000      -1.29363800       1.80115300       0.97958300
Si       8.52672000       8.61906000      10.86161000      -0.94443500       0.65405000      -0.31886100
Si       6.81456000       4.96874000       9.06450000       1.78113500      -0.57779900       1.49781200
10
Lattice="11.0 0.0 0.0 0.0 11.0 0.0 0.0 0.0 11.0" Properties=species:S:1:pos:R:3:REF_forces:R:3 config_type=Fe5B1Si4 REF_energy=-36.59236839 pbc="T T T"
Fe       3.58274000      10.79851000      10.73667000       0.11897900       0.22630100      -0.04976800
Fe       1.22875000       2.49300000       7.21708000       2.26097500      -1.53625800       1.07649700
Fe       0.83190000       3.93076000       3.48688000       1.35086000      -1.69250200       0.45489600
Fe       9.39560000       2.93064000       6.23859000      -2.27414300      -0.91782300      -0.86979000
Fe       1.68648000       4.78764000       5.33563000      -2.42207400      -1.78775100      -0.34755700
B        0.09146000       3.23421000       6.27209000       0.33374200       3.18943500      -3.08739300
Si      10.14804000       1.29848000       4.70398000      -0.27194000       2.69997500       0.88966000
Si       7.91960000       4.68330000       6.38399000       1.00571800      -0.89791700      -1.90531900
Si       7.87407000       3.80560000       3.83659000       1.69436900       0.65761100       2.09344900
Si      10.18862000       4.97429000       4.13294000      -1.79648600       0.05892800       1.74532400
10
Lattice="11.0 0.0 0.0 0.0 11.0 0.0 0.0 0.0 11.0" Properties=species:S:1:pos:R:3:REF_forces:R:3 config_type=Fe5B1Si4 REF_energy=-37.97135349 pbc="T T T"
Fe       9.03194000       7.52207000       3.76953000      -0.41692800       1.06213800       1.36215600
Fe      10.13763000      10.16701000       4.97367000      -1.48414600      -0.40832500      -0.11078200
Fe       4.72985000       7.86062000       7.54580000      -0.46341600      -0.84233600       0.25668000
Fe       8.27206000       8.93115000       5.41966000       2.10203900       0.88604100      -1.49179500
Fe       4.77388000       2.87329000       5.35297000      -0.27504900      -0.53922100      -0.84728100
B        4.61354000       3.86066000       6.74103000      -0.14362800      -0.14915200      -1.57005500
Si       1.64433000       3.13639000       3.91354000       3.75707800      -0.87803400      -0.36408100
Si       3.74801000       5.66030000       6.94882000       0.45210300       0.36957600       0.68487900
Si       8.69515000       0.60160000       4.24738000      -0.18983800      -0.10747800       0.51028900
Si      10.87890000       3.62141000       4.73344000      -3.33821400       0.60679200       1.56999000
10
Lattice="11.0 0.0 0.0 0.0 11.0 0.0 0.0 0.0 11.0" Properties=species:S:1:pos:R:3:REF_forces:R:3 config_type=Fe5B1Si4 REF_energy=-19.85588119 pbc="T T T"
Fe       0.38446000       1.64586000       0.19247000      -0.31544900       0.99906300      -1.16531000
Fe       4.73202000       7.12132000       7.31276000       0.31929800      -0.23556100       1.39875500
Fe       0.36789000       2.73674000       6.71847000       0.18431700      -0.99436400      -3.07194200
Fe      10.07665000       2.07009000       8.11408000      -1.05625300       0.13475800      -0.04421700
Fe       0.10300000      10.83360000       4.98934000      -0.79988200       1.03958000       0.82376600
B        9.83138000       1.34479000       5.59342000       2.73003300      -1.60069300       1.71860100
Si       8.95511000       2.30296000       4.33786000      -0.13907800       0.36771900       0.11506400
Si       3.99539000      10.22212000       8.61506000      -0.05248500      -0.48071600       0.18941400
Si       2.69021000       5.15166000      10.73011000       1.27722300       0.17680000       0.10453800
Si       5.75937000       5.49395000      10.03068000      -2.14772600       0.59341400      -0.06866800
10
Lattice="9.0 0.0 0.0 0.0 9.0 0.0 0.0 0.0 9.0" Properties=species:S:1:pos:R:3:REF_forces:R:3 config_type=Fe5B1Si4 REF_energy=-45.52219027 pbc="T T T"
Fe       5.95652000       4.23215000       1.06155000      -0.98767900      -0.50029400      -0.25142400
Fe       5.13270000       1.30654000       4.87525000      -1.02972800       1.07694500      -1.04271400
Fe       0.86010000       2.84042000       4.86982000       1.78090900      -0.14036100      -0.68290200
Fe       4.80846000       2.20734000       0.33653000      -0.70934400       1.79820400       0.47599400
Fe       4.84818000       3.73073000       2.87016000      -1.11599800      -1.47444400      -2.61602900
B        3.56051000       3.01373000       4.13091000      -3.27582500      -2.90917300      -1.74282900
Si       3.41138000       1.28778000       2.26512000       0.95707700       2.37405100       0.97860500
Si       5.16668000       2.63723000       6.68984000       0.07413900      -1.78642600       3.36318600
Si       3.08125000       3.86721000       0.97989000       1.93930500      -1.04831500       0.87154200
Si       4.99984000       3.77363000       4.95280000       2.36714300       2.60981200       0.64657100
10
Lattice="11.0 0.0 0.0 0.0 11.0 0.0 0.0 0.0 11.0" Properties=species:S:1:pos:R:3:REF_forces:R:3 config_type=Fe5B1Si4 REF_energy=-40.7418507 pbc="T T T"
Fe       5.85212000       3.50546000       5.08734000       2.15677100      -0.79414500      -0.20894700
Fe       4.00684000       5.71103000       1.22208000       0.17321900       0.19260900       1.30384500
Fe       8.00148000       8.34774000      10.98030000      -0.08363800      -0.04550400       0.02901100
Fe       7.35073000       2.40140000       6.64128000       0.77906300       1.12479900      -0.71056100
Fe      10.15241000       4.26124000       5.16236000      -1.21868700      -1.07976300       1.03424500
B        7.50939000       3.71850000       4.30627000       0.81775400       0.01191000       1.18846500
Si       0.88259000       3.63568000       4.13155000       0.18457900       0.08807600       0.63549900
Si       4.29968000       6.34926000       4.01086000      -0.04470200      -1.65685100      -0.27530200
Si       3.89182000       4.30839000       5.36988000      -1.81091900       1.59107900      -0.75492800
Si       9.83466000       2.97427000       7.53103000      -0.95344000       0.56779200      -2.24132700
10
Lattice="9.0 0.0 0.0 0.0 9.0 0.0 0.0 0.0 9.0" Properties=species:S:1:pos:R:3:REF_forces:R:3 config_type=Fe5B1Si4 REF_energy=-42.65563223 pbc="T T T"
Fe       5.47398000       6.28103000       3.23251000       0.28355300       0.05833700       0.13117200
Fe       3.48819000       2.94480000       4.89866000      -0.87509200      -0.04370600       2.15230300
Fe       8.33854000       1.27421000       2.74786000      -0.46364400       1.92715600       1.33564000
Fe       6.99962000       2.76087000       4.14267000      -0.44746500       1.63766400       1.88762100
Fe       1.77962000       3.26723000       3.35280000      -0.52218800      -0.67489800       0.43259300
B        4.62666000       4.86714000       2.55939000       0.26614600      -1.03752000       0.98811100
Si       4.18354000       2.39378000       2.99079000       0.43795500       1.50930000      -2.71878500
Si       8.55432000       3.88894000       3.61944000       3.24804800       2.01892900      -1.57919700
Si       5.93563000       1.17498000       3.69373000      -1.91994400      -5.30800600      -1.48876300
Si       0.45419000       2.68863000       5.46192000      -0.00736800      -0.08725600      -1.14069400
10
Lattice="11.0 0.0 0.0 0.0 11.0 0.0 0.0 0.0 11.0" Properties=species:S:1:pos:R:3:REF_forces:R:3 config_type=Fe5B1Si4 REF_energy=-34.53347477 pbc="T T T"
Fe      10.38446000       0.44273000       4.17388000      -0.78237800      -1.86098300       1.10984900
Fe       5.58579000       5.13476000       2.28318000      -1.35183300       0.99168200      -0.54319900
Fe      10.26893000       9.29847000       6.65501000       0.41344200       0.04548900      -2.04786900
Fe       8.86095000       8.11141000       4.18070000       1.29133000       1.24914000       1.04926000
Fe       7.69214000       0.53975000       5.12514000       1.95509500      -0.60911200      -1.00813900
B        2.74748000       4.83778000       0.91630000       1.39196400      -0.12393600      -0.20196400
Si       6.81162000       1.90994000       1.53462000      -0.52184800       1.18261600      -0.41056100
Si       6.12115000       4.10888000       0.52255000       1.58173000      -1.75162600       1.46051100
Si       0.91081000       9.09353000       4.86613000      -2.08485700       0.69467200       0.51855400
Si       4.16380000       4.58033000      10.67633000      -1.89264600       0.18205800       0.07355800
10
Lattice="11.0 0.0 0.0 0.0 11.0 0.0 0.0 0.0 11.0" Properties=species:S:1:pos:R:3:REF_forces:R:3 config_type=Fe5B1Si4 REF_energy=-31.88716106 pbc="T T T"
Fe       1.14116000       9.49468000      10.94139000       1.03161900      -0.44995100      -0.39877100
Fe       7.21367000       6.98307000       4.70883000      -2.94301400      -1.46688800       0.65014200
Fe       4.99485000       7.56523000       3.28858000       0.74465000      -0.23543700      -0.70888800
Fe       5.11075000       7.78078000       8.02245000      -0.73545200      -0.54142400       0.97332500
Fe       5.02580000       6.08327000       6.14288000       1.53107200       2.07986600      -0.44355300
B        6.46739000       9.52531000       1.42776000      -0.83213000      -0.78314200       0.21534400
Si       3.36056000       5.78054000       9.88043000      -0.35408900       0.86759200       0.70337500
Si       3.68875000       6.60974000       1.41965000       0.14004300       0.02695200      -1.00259500
Si       3.95884000       8.08391000      10.56775000       0.21456400       0.93303900      -0.26874100
Si       1.56076000       7.66233000       9.57449000       1.20273800      -0.43060700       0.28036300
10
Lattice="11.0 0.0 0.0 0.0 11.0 0.0 0.0 0.0 11.0" Properties=species:S:1:pos:R:3:REF_forces:R:3 config_type=highE REF_energy=-2.43842541 pbc="T T T"
Fe       8.11536000       3.96737000       6.09845000       2.52379000       3.39438000      -0.10855200
Fe       4.00538000       4.00868000       8.30741000       1.03860200       0.49749300      -0.86210200
Fe       6.21734000       5.49238000       4.54674000      -1.90078500      -0.53233000       2.45773000
Fe       6.37295000       3.21617000       6.01003000      -4.31429000      -0.62928100      -0.35144300
Fe       4.28107000       3.14598000       4.09228000       1.68301600       0.43320300       1.57416800
B        8.65122000       7.09833000       7.78974000      -0.81588400      -0.96711600      -2.45875700
Si       8.15838000       5.95236000       4.46257000       2.65955200       1.43037300       0.95638300
Si       7.04021000       6.67768000       6.73922000       0.09201500      -1.71899800      -1.45860000
Si       9.92269000       6.79012000       6.33039000      -1.33422700      -1.06385500      -1.26044000
Si       6.58826000       7.17809000       3.12641000       0.36821200      -0.84387000       1.51161300
10
Lattice="6.0 0.0 0.0 0.0 6.0 0.0 0.0 0.0 6.0" Properties=species:S:1:pos:R:3:REF_forces:R:3 config_type=Fe5B1Si4 REF_energy=-53.79328822 pbc="T T T"
Fe       0.50996000       2.31585000       5.10298000      -1.26599000      -0.50951400      -1.36914100
Fe       4.41281000       4.39623000       3.51801000       2.05066400       2.95138500      -2.14682400
Fe       1.31233000       5.37312000       2.96679000      -9.66985400       0.21848200       6.64889800
Fe       5.30196000       5.42046000       5.41384000       1.20364700       0.82237100      -1.12375000
Fe       2.97556000       4.92730000       5.11455000      -0.79718400       0.13310700       0.96147400
B        5.46078000       0.52907000       3.64926000      -0.06089300       0.25590500       0.66478200
Si       2.81628000       5.37752000       2.00180000       6.85751800      -0.72904200      -5.53711500
Si       3.67557000       2.72706000       4.43876000      -0.82806600      -3.20205400       1.23328500
Si       4.50462000       4.23004000       1.13387000       0.98654700      -1.71437000      -0.38631400
Si       3.47649000       1.50306000       2.12993000       1.52361000       1.77373100       1.05470500
10
Lattice="12.0 0.0 0.0 0.0 12.0 0.0 0.0 0.0 12.0" Properties=species:S:1:pos:R:3:REF_forces:R:3 config_type=Fe5B1Si4 REF_energy=-45.66921287 pbc="T T T"
Fe       4.03767000       2.41086000       6.51410000       1.86803300       0.00585300       0.51063200
Fe       4.79727000      11.75927000       9.09533000       0.54049700       0.45513700      -1.32376800
Fe       5.80034000       0.20229000       7.24671000      -0.98588000       0.20802500       0.94137200
Fe       2.05211000       2.95405000       6.25512000       2.57383000      -4.97171900      -0.05243800
Fe      10.63745000       6.40731000       8.22423000       2.53671700       0.81311500       1.95374300
B        0.84162000       3.96532000       6.10421000      -4.86746300       6.15325900      -0.19918700
Si      11.63963000       6.23445000       6.22676000      -0.35704700      -1.54389000       0.24409400
Si       3.22498000       4.42586000       7.46287000       0.03799300      -0.11015200       2.77997700
Si       9.18537000       5.87384000       7.01392000      -1.44092000      -0.74281100      -2.37788300
Si       3.29574000       4.59508000       5.32414000       0.09424000      -0.26681600      -2.47654200
10
Lattice="12.0 0.0 0.0 0.0 12.0 0.0 0.0 0.0 12.0" Properties=species:S:1:pos:R:3:REF_forces:R:3 config_type=Fe5B1Si4 REF_energy=-40.44776833 pbc="T T T"
Fe       7.06472000       0.75703000       4.41200000      -0.73286900       1.73970700       1.22671300
Fe      11.90054000       7.42248000       6.69802000       0.03246800       0.64733700       0.98205900
Fe      10.12418000       0.60541000       5.20823000      -0.48859100      -2.03730100       1.24670000
Fe      10.39300000       2.54150000       5.28917000      -0.33297800       2.17427100       0.65505400
Fe       3.33542000       6.78910000       9.86388000       0.24737600      -0.09076000       0.05285200
B        5.53916000       2.15702000       5.34372000       1.68114500      -0.39810000      -0.48918900
Si      11.55305000       0.58230000       7.59681000      -1.03075100      -0.31393400      -1.35483500
Si      11.22335000       9.29389000       8.05067000       1.29734600      -2.13518600      -1.48785700
Si       1.26500000       7.26526000       9.42025000      -0.89960500       0.42650500      -1.30306200
Si       7.94311000       2.74864000       5.06637000       0.22645900      -0.01253700       0.47156600
10
Lattice="12.0 0.0 0.0 0.0 12.0 0.0 0.0 0.0 12.0" Properties=species:S:1:pos:R:3:REF_forces:R:3 config_type=Fe5B1Si4 REF_energy=-23.43353304 pbc="T T T"
Fe       9.63658000       7.42241000       5.86764000       0.47035000       2.05291100      -2.72758600
Fe       5.31881000       6.36859000       4.28876000      -0.80107400      -1.01590900      -1.12449000
Fe       3.82927000       4.00917000       2.43559000       0.30020200       0.23085000       0.33044700
Fe       0.10056000       0.89748000      10.48989000       0.22539300       0.11915700      -0.83182200
Fe       3.01612000      10.54701000       9.70541000       0.66209000       0.55579500      -1.79746300
B        9.50506000       6.56368000       7.19255000      -0.49779300      -2.95637200       4.93484100
Si       6.10297000      11.04688000       1.87040000      -1.95229800      -0.10130300       1.46512100
Si       4.27572000      10.50612000       7.24675000      -0.51870400       0.16376200       0.68908600
Si       2.76286000      11.67463000       2.22984000       1.93200300      -0.74458800       0.99151100
Si       4.28644000      10.33460000       3.83849000       0.17983200       1.69569700      -1.92964500
10
Lattice="12.0 0.0 0.0 0.0 12.0 0.0 0.0 0.0 12.0" Properties=species:S:1:pos:R:3:REF_forces:R:3 config_type=Fe5B1Si4 REF_energy=-8.07237855 pbc="T T T"
Fe       4.75916000       6.79891000       2.05132000       0.22799200       0.19242400      -0.57132200
Fe      11.20664000       1.83254000       0.32250000       0.18693000       0.08718100      -0.38044800
Fe       5.43785000       7.96114000       4.94194000       0.17558600      -1.26093700      -2.23151300
Fe       4.74010000       7.59209000       6.81351000      -1.60539100      -0.15067900       3.87881900
Fe       3.04237000       7.27375000       0.13546000       1.23470100       0.75880800       1.13699500
B        5.64718000       0.89739000       1.78136000      -1.08261300       2.27418500      -1.45487800
Si      10.10405000       8.38981000       0.94488000      -0.25533600      -0.23612300      -0.63693400
Si       8.32135000       7.16483000       0.24873000      -0.07509400       0.44424100      -0.36527200
Si       4.71858000       3.09313000       0.71193000       1.05382900      -1.85394700       0.74405700
Si       9.61989000       6.24678000       1.84823000       0.13939400      -0.25515300      -0.11950400
10
Lattice="10.0 0.0 0.0 0.0 10.0 0.0 0.0 0.0 10.0" Properties=species:S:1:pos:R:3:REF_forces:R:3 config_type=Fe5B1Si4 REF_energy=-19.59215216 pbc="T T T"
Fe       7.84441000       7.30720000       5.58296000       0.27617000      -0.46428700      -0.20972000
Fe       8.94797000       0.78587000       5.26505000       0.07666200      -0.29511300      -0.79386900
Fe       3.00248000       7.57529000       4.93739000      -0.14884700      -0.48063600       0.26565700
Fe       3.59461000       2.02957000       9.66135000      -2.56988300       0.20173100       2.50491200
Fe       6.58411000       3.94287000       5.68002000       0.77278800       0.64651300      -0.52409800
B        4.36328000       8.59880000       4.19680000       0.92720100       0.89703600      -0.22179100
Si       2.71514000       9.18506000       3.42190000      -0.70890900       0.04376900      -0.82115300
Si       1.65756000       2.11952000       1.71927000       1.11828400      -0.58423900      -0.48216600
Si       5.92714000       8.11752000       5.13325000       0.37499700      -0.50460300       0.03399700
Si       4.15593000       6.82228000       3.14686000      -0.11846400       0.53983000       0.24823000
10
Lattice="12.0 0.0 0.0 0.0 12.0 0.0 0.0 0.0 12.0" Properties=species:S:1:pos:R:3:REF_forces:R:3 config_type=Fe5B1Si4 REF_energy=-36.29094727 pbc="T T T"
Fe       5.19667000      10.02018000       9.01676000       0.25044500       0.05837000      -0.13113300
Fe       8.32994000       6.43692000       0.05364000       0.20781000      -2.15590000       0.61918600
Fe      10.60266000       3.84707000      11.78075000       1.23513300       1.01405800       1.24421800
Fe       7.21635000       4.39457000      10.91108000      -0.58115300       5.60887400       7.61068400
Fe      10.53110000       3.48387000       2.04262000       0.09172200       0.58580700      -2.08987900
B        9.08593000       5.29692000       1.79433000       0.56082700      -0.76055200      -2.02616200
Si       8.11299000       5.88038000       3.32391000      -0.20717700       0.24800800       0.39277300
Si       8.62540000       3.34184000      11.79764000       0.28937800      -2.17881900       1.64960800
Si       6.89606000       3.80616000       9.27382000      -1.22102200      -3.00217200      -8.06439500
Si      10.23285000       5.01250000       3.45401000      -0.62596200       0.58232700       0.79510000
10
Lattice="9.0 0.0 0.0 0.0 9.0 0.0 0.0 0.0 9.0" Properties=species:S:1:pos:R:3:REF_forces:R:3 config_type=Fe5B1Si4 REF_energy=-16.46863033 pbc="T T T"
Fe       7.97770000       7.22347000       3.46950000       0.49148100      -0.12929800       0.03527700
Fe       0.36482000       4.81625000       4.86010000       1.09129400       2.16925800      -0.55158100
Fe       5.55659000       8.48212000       7.00420000      -0.42359300      -1.19022100       1.44232200
Fe       7.45892000       4.00039000       8.45371000       0.13859200       0.98710800      -0.17915100
Fe       0.74745000       0.26604000       3.96015000       0.86206500      -1.92058900      -0.00904600
B        0.13927000       8.21504000       8.07808000       0.67536600      -1.39982600      -0.67386100
Si       5.36430000       7.26535000       0.11873000       0.57894900      -0.26765800       0.00527300
Si       1.22178000       6.44429000       7.65768000      -0.67178200       1.32797700      -0.37566600
Si       1.89924000       6.52108000       3.14767000      -1.55692700       1.18962600       1.08925000
Si       2.86218000       0.05280000       4.92507000      -1.18544500      -0.76637800      -0.78281700
10
Lattice="6.0 0.0 0.0 0.0 6.0 0.0 0.0 0.0 6.0" Properties=species:S:1:pos:R:3:REF_forces:R:3 config_type=Fe5B1Si4 REF_energy=-57.17978289 pbc="T T T"
Fe       0.82404000       0.93657000       0.05841000       0.67065800      -0.39414500       0.38594700
Fe       2.76149000       5.14944000       5.17737000       0.73421200       1.30716300       0.27228200
Fe       3.01500000       1.77001000       4.94511000       1.16692400      -0.74264600       0.93082100
Fe       5.01427000       3.37755000       4.72813000      -0.72149500      -0.85424400       0.46365400
Fe       4.86466000       1.99267000       0.70298000      -1.67510400      -0.53325600      -0.94446700
B        3.04207000       0.73323000       1.20916000      -0.12033200       0.28194800      -1.73119100
Si       0.93388000       1.79870000       3.86446000      -0.79967600       0.20951400       0.30623400
Si       5.01956000       0.00688000       4.78660000      -0.95903000      -0.00923500       1.01104900
Si       3.09734000       2.22042000       2.71278000       0.91395300      -0.43373500      -0.10247500
Si       1.73178000       5.32541000       2.17278000       0.78989100       1.16863700      -0.59185300
10
Lattice="7.0 0.0 0.0 0.0 7.0 0.0 0.0 0.0 7.0" Properties=species:S:1:pos:R:3:REF_forces:R:3 config_type=Fe5B1Si4 REF_energy=-52.6318506 pbc="T T T"
Fe       4.04120000       5.24096000       2.80196000      -0.04474200       0.15561800      -0.60586000