54
Lattice="8.579999685 0.0 0.0 0.0 8.579999685 0.0 0.0 0.0 8.5799996" Properties=species:S:1:pos:R:3:REF_forces:R:3:MACE_forces:R:3 config_type=Fe34B10Si10 REF_energy=-352.89092233 MACE_energy=-353.2478413843879 pbc="T T T"
Fe       1.46495000       0.71583000       1.12880000       3.73230100      -3.41607500      -3.76209700       3.75591521      -3.51066684      -3.69994572
Fe       0.56244000       2.07917000       1.96452000      -3.31290700       4.06628900       2.54508600      -3.37856615       4.12928955       2.42124643
Fe       0.86636000       2.12990000       5.00906000     -10.85567700      -2.87102900      12.20968700     -10.93760968      -2.93619777      12.17393637
Fe       0.24697000       2.61233000       7.83061000      -0.37811800      -2.03816900      -0.08744800      -0.31560278      -2.06949822       0.13095243
Fe       0.35437000       4.66395000       8.16447000      -1.30300600       1.62250000       0.84662400      -1.36695770       1.66319018       0.81414665
Fe       0.83543000       8.00840000       3.01492000       5.54921000      -2.55787300       0.52513800       5.54276646      -2.63921733       0.44778276
Fe       2.03952000       7.84431000       6.63062000      -4.28706100       1.82495200      -1.68802900      -4.02627253       2.02837634      -1.68986476
Fe       3.34318000       0.11090000       2.96052000      -0.46571400      -0.35056300       0.37864800      -0.47039921      -0.18248881       0.49163874
Fe       3.26317000       2.11539000       1.48699000      -3.47884800      -0.03222100       0.61542300      -3.32174622      -0.28195288       0.22416095
Fe       4.14313000       2.75755000       3.31065000      -0.71378000      -2.73118300       1.93004800      -0.67422017      -2.48869962       1.91621513
Fe       2.55051000       2.67374000       7.19710000      -2.55215900      -0.93589000       1.77261600      -2.32533597      -1.03739122       1.70885661
Fe       3.61327000       2.86500000       5.46497000       1.55763200       0.20514300      -0.56676300       1.46739442       0.32657744      -0.26492182
Fe       2.62400000       4.72550000       1.39174000      -1.08585200      -1.19598700       0.59645400      -1.37275924      -0.91188814       0.72161394
Fe       2.20317000       5.21693000       3.87451000      -3.92870900      -4.38103900      -4.92199500      -3.86015694      -4.37194091      -5.02075897
Fe       3.93082000       4.37819000       8.08226000       1.07616800       0.44807800      -0.99700400       1.05362200       0.26682333      -1.08758536
Fe       2.44961000       7.01753000       1.08943000       0.32119000      -1.55635000       3.27006500       0.46353900      -1.64474274       3.32183980
Fe       3.02500000       6.15780000       5.08193000      -1.08486800       1.64126100       3.95415400      -0.45667951       1.58233405       3.91771589
Fe       5.77712000       0.44616000       0.16142000      -2.43333700       0.07175000       4.13474700      -2.40452787       0.43441757       4.19347714
Fe       5.66964000       0.14892000       2.95259000      -3.67617900       1.90971100       0.12919700      -3.70173483       1.66187637       0.28177972
Fe       5.39484000       2.66317000       1.55162000       4.08183700      -3.39937100       3.88213200       3.94787213      -3.76720685       4.09555638
Fe       5.91309000       3.40423000       8.31953000       8.90196200       5.48305700      -2.72562400       8.70035516       5.52186004      -2.77278999
Fe       4.96126000       4.63305000       3.41410000      -3.60269200      -2.00302700       2.25051900      -3.85118879      -2.25013064       2.39751999
Fe       5.11347000       6.81217000       1.78872000      -0.87770500       0.06714300      -1.61156800      -0.65726781       0.11769092      -1.59413371
Fe       5.00950000       6.45991000       8.24507000      -2.30619500      -0.19808200      -1.52355700      -2.22185867      -0.04133577      -1.65987552
Fe       4.64263000       7.71190000       5.75084000       2.50156800       4.23919200      -1.55456800       2.57329524       4.24721815      -1.67311645
Fe       7.32285000       0.33022000       5.03535000      -0.99210900      -0.59745100       4.73628300      -1.04038125      -0.38883073       4.74159565
Fe       6.75330000       1.32958000       7.05071000       0.53851300       2.01290400       0.36400700       0.46762487       1.87183062       0.35282288
Fe       6.82686000       2.53028000       3.66692000      -0.08907100      -0.12987400      -0.26318300       0.03513839      -0.19812333      -0.25035136
Fe       6.83617000       5.56618000       0.59386000       1.74434500       1.47371700      -3.32847200       1.82194817       1.87164427      -3.43761832
Fe       8.27091000       4.29855000       2.87718000       3.23308900       0.33980500       1.37352500       3.13176892       0.19237553       1.38617708
Fe       6.58774000       4.90718000       4.97515000      -1.87594500       0.58060600      -0.05143700      -2.07140022       0.51482679      -0.64299220
Fe       6.86773000       6.79187000       3.27473000       1.52763600      -2.76254700       0.67579100       1.46215360      -2.45473999       0.34657091
Fe       8.09083000       8.29691000       0.84396000      -4.18921500      -1.95965200       9.56442300      -4.31406091      -2.31237343       9.54923164
Fe       6.62133000       7.67903000       7.47205000      -3.65417600       1.51975600      -3.32990400      -3.96323279       1.32937908      -3.46556208
B        3.45077000       6.81738000       6.75435000       2.04131500      -2.79808300       3.80923700       1.88380102      -2.77308082       3.97164553
B        4.67436000       1.10514000       4.73414000       0.75036200       0.95391600      -0.52852700       0.82803871       0.87681542      -0.40832382
B        6.18153000       2.20088000       5.47737000      -4.49435700      -3.20609500      -2.27763700      -4.67356160      -3.15484590      -2.39066392
B        5.08133000       4.10197000       6.35983000       0.35152900       0.25548900      -0.65354500       0.53932244       0.37549975      -0.62332366
B        4.48663000       4.29393000       1.40792000      -0.27448100       1.04603100       0.21283300      -0.19951950       1.18922046       0.24379782
B        4.96286000       5.88068000       6.14703000       0.60492000      -1.85032800       0.29314600       0.51921162      -1.92337291       0.15899148
B        8.17242000       5.65216000       5.55863000       1.00443800       0.65677900      -0.69824300       0.99671588       0.79601218      -0.31217038
B        7.98743000       6.92663000       6.60530000       5.86774900       2.58695800      -4.05103700       5.79030386       2.34207835      -3.75506761
B        7.10769000       5.72812000       6.91109000      -2.33709700      -3.34606800       1.34633400      -2.12922229      -3.39817708       1.68647897
B        7.81665000       6.81498000       8.33858000       5.04350100      -2.41043400       0.97359300       5.12496360      -2.66666900       0.58797627
Si       0.06983000       0.14925000       7.74742000       4.12649000       2.60901100      -8.87608100       4.05399573       2.60863779      -8.73745372
Si       1.93337000       2.41223000       3.74634000      10.14534600       2.98113100     -12.18526000      10.22640831       3.07190069     -12.00320370
Si       0.75978000       6.02813000       1.69309000      -4.13401100      -0.74920300       1.02787300      -4.14032244      -0.82969371       0.98041521
Si       2.22023000       5.10313000       7.16329000      -1.58663400       1.19675500      -1.89967800      -1.64071712       1.14456232      -1.91618100
Si       3.27754000       8.17117000       8.35443000       4.04667900       4.58101600      -2.24829100       3.93154179       4.59083868      -2.40914304
Si       4.48145000       2.18337000       8.34202000      -5.72220500      -5.96162700      -4.99603400      -5.52728330      -5.96600631      -5.12153237
Si       6.36439000       4.54151000       2.12641000       2.28764700      -2.33178900       1.39384200       2.51251256      -2.11594105       1.34942326
Si       4.52267000       6.51460000       3.75633000       0.42177200       5.22743800       1.25328700       0.12007712       5.30859471       1.33926030
Si       7.68278000       0.22257000       3.11016000      -0.17295300       4.89916800      -3.86478000      -0.26672219       4.81424679      -3.95079979
Si       7.35363000       3.38410000       6.13231000       4.40786200       1.27045000       2.62604800       4.35902152       1.43709465       2.93455335
54
Lattice="8.579999685 0.0 0.0 0.0 8.579999685 0.0 0.0 0.0 8.5799996" Properties=species:S:1:pos:R:3:REF_forces:R:3:MACE_forces:R:3 config_type=Fe34B10Si10 REF_energy=-354.71875992 MACE_energy=-355.34308437190424 pbc="T T T"
Fe       0.43313000       1.19321000       2.96848000       1.47291300       2.99028000       0.61180900       1.47963229       2.94262706       0.32018908
Fe       0.91365000       1.12516000       8.09995000       2.76260400      -2.00335600       1.20968300       2.41690806      -2.00123905       1.07527373
Fe       1.17142000       2.67870000       5.23446000      -1.90323000       6.04651700       0.58026800      -1.75746438       6.10806401       0.42846896
Fe       0.60772000       3.85484000       0.87278000       2.66909500       4.89444800       4.53699300       2.53363611       4.96847377       4.18020189
Fe       1.41565000       3.44858000       3.01161000      -0.29549500       2.03729500      -0.74017400      -0.09568444       1.91917376      -0.68671393
Fe       0.04226000       2.91249000       8.09734000      -3.39897200      -2.84207300      -2.69442200      -2.79133024      -2.86380068      -2.34512609
Fe       1.33282000       7.09057000       5.22634000      -0.45239700      -1.35392500       0.92503500      -0.22415781      -1.51410934       0.96831236
Fe       2.06045000       7.92051000       0.98063000      -3.11321000      -0.30108300      -2.49280600      -3.12662183      -0.40759336      -2.39049100
Fe       2.03627000       8.24295000       3.50701000      -1.42216600       4.38122900       0.88517600      -1.46572856       4.12849907       0.66222971
Fe       0.01253000       8.02686000       7.00667000       2.58679700       0.98610200     -11.80201700       2.44463732       0.92337443     -11.87517491
Fe       3.00353000       0.57289000       6.13981000      -1.03922300       0.18357300       0.93137300      -0.80842247       0.11151520       1.01281947
Fe       3.69949000       2.65196000       7.51811000       2.76433000      -4.34399200      -3.80269000       2.59410374      -4.11307520      -3.68509169
Fe       2.94478000       6.44154000       3.03987000       7.21319500      -3.66655800      -1.17614100       7.03535832      -3.46410684      -1.01750629
Fe       2.94309000       5.75189000       6.64956000      -6.24071800      -0.74678300       3.86021800      -6.48426358      -0.65046877       3.85773237
Fe       3.71160000       8.39321000       1.86324000       2.24845700      -0.43546600       0.28887200       2.19952040      -0.16531270       0.68629019
Fe       4.07810000       8.43915000       4.32840000       2.88035800       1.28304800      -0.49181300       2.85827979       1.37402446      -0.76622019
Fe       5.57499000       0.73262000       6.31633000      -3.12774100      -1.68249800      -0.98058200      -2.84001907      -1.67388488      -0.89487637
Fe       4.70712000       1.94493000       1.65492000      -2.04675700       4.97917500      -3.67899600      -2.13007222       4.76345566      -3.49192913
Fe       4.73401000       4.18392000       1.24748000       0.71501700       1.80608500      -0.06999200       0.70381729       2.02061887      -0.10659338
Fe       4.56687000       4.22266000       4.39618000       0.73801700       3.32591500      -2.10569900       0.48745674       3.15758259      -2.19192769
Fe       4.51224000       4.61167000       7.05684000       2.53211900      -0.41024200       0.53825400       2.97908189      -0.75247966       0.49031259
Fe       6.32808000       6.81945000       4.24288000      -3.20445400      -0.33519400      -1.28892300      -2.80433758      -0.24736396      -1.11204778
Fe       6.22240000       7.17309000       0.16230000      -3.30904600      -2.75215800       1.90373500      -3.50288355      -3.04968549       2.08602077
Fe       4.54224000       7.44382000       7.03838000       0.17895600      -5.02037800      -8.74618400       0.28216356      -5.24482559      -8.94348097
Fe       4.73272000       8.55832000       8.35561000      -0.10588400       8.96287400       6.54083400      -0.18863460       9.48454317       6.21714107
Fe       7.67285000       2.82429000       2.17742000      -2.12886900      -0.76272600      -2.06587500      -2.06291370      -0.81628662      -1.98459397
Fe       6.74071000       1.77406000       4.33655000       0.47479500       0.50025500      -0.42349800       0.07887531       0.45849305      -0.47969363
Fe       7.16362000       1.61896000       6.68131000       5.11373900       1.83737400       0.70818800       4.77814952       1.68815911       0.63604097
Fe       6.73653000       4.13840000       7.84564000       0.19062300       0.32905600       3.59274800       0.10909848       0.50082297       3.64022610
Fe       6.61248000       5.35948000       2.44590000       0.96755600      -0.77403900      -0.47053600       0.84387703      -0.67949401      -0.51003319
Fe       8.39074000       4.95678000       4.82580000       0.50677700       3.21370700       1.22596300       0.59528657       3.11003058       1.09794657
Fe       6.62275000       6.29700000       6.29237000       0.91106900      -0.58785400       1.74696000       0.79482731      -0.46920867       1.60629246
Fe       8.00875000       8.14674000       2.12563000      -1.25903800      -1.94608200      -3.37077000      -0.88978551      -1.94040522      -3.39379956
Fe       7.96861000       8.10559000       4.08816000       1.24434400       0.03207600       4.40361200       0.69982820      -0.01119887       4.50433875
B        3.14587000       1.61638000       2.59818000      -3.96044800      -1.57388800      -2.24367700      -3.97312580      -1.48840654      -2.01865385
B        4.07212000       1.93087000       3.78701000       0.55534200       0.12762300      -3.25123200       0.44234354       0.11320932      -3.21683633
B        2.24412000       1.90783000       4.05913000      -1.80380000      -9.70850100      -5.48536600      -1.84510267      -9.91977708      -5.58236661
B        2.90130000       3.06657000       4.45062000       2.48509300       7.60479000      -1.50334300       2.91864081       7.32190097      -1.50345754
B        2.82587000       3.80138000       5.80651000       0.21675600       2.27927400       3.92227300       0.33822113       2.12946033       3.85158321
B        2.60929000       5.04297000       1.66311000       0.12617300      -0.77075900      -0.46531300      -0.06970045      -0.75811901      -0.37498310
B        2.47198000       4.95014000       4.32601000      -0.76752800      -1.31946700       0.35153300      -0.81111897      -1.21443218       0.32235243
B        2.73354000       7.81887000       7.66829000      -1.47869400      -0.15377200       0.00458000      -1.53163002      -0.17738640       0.18085924
B        5.68071000       2.28134000       7.79544000      -0.95924500       0.41857400       1.11780500      -0.92816912       0.34243436       1.06007034
B        7.77536000       3.70665000       3.76574000      -0.44877700      -1.48394500      -0.38974400      -0.55435905      -1.40581068      -0.03495860
Si       0.79518000       0.92195000       5.77957000      -1.66645900      -4.94136200      -1.10925300      -1.62237135      -5.11468180      -0.94554873
Si       0.88055000       4.20706000       6.73551000       1.15626000       3.58432200      -0.32349000       1.09962953       3.77579090      -0.19720074
Si       1.15025000       6.44729000       2.43826000      -7.77651300      -1.83655100      -1.54918700      -7.91089838      -1.73848818      -1.72321009
Si       2.82820000       3.29548000       0.50208000      -4.05499500       1.58525200       5.32597100      -4.13272927       1.48225346       5.27334056
Si       4.14031000       6.38272000       0.30005000      -2.16949800      -2.44928300       2.57761000      -2.20967120      -2.50518579       2.56520969
Si       3.68345000       6.43010000       5.01209000       3.98893100       0.98565200      -2.13453700       3.85260116       1.18380387      -2.07003292
Si       5.73751000       0.59059000       2.53265000       5.08228400      -4.90021500       2.23852200       5.16586503      -4.92632618       2.49461058
Si       4.51163000       2.47994000       5.36819000       2.60737700      -2.86786400       7.12589500       2.76732629      -2.67677508       6.98400290
Si       6.43436000       3.75222000       5.86206000       1.38008400       0.66155200      -3.64612400       1.58440204       0.79346112      -3.76901463
Si       8.06432000       7.52318000       8.55473000       2.36409700      -3.06603600      11.34847700       2.67762838      -2.81184430      11.10969693
18
Lattice="6.5 0.0 0.0 0.0 6.5 0.0 0.0 0.0 6.5" Properties=species:S:1:pos:R:3:REF_forces:R:3:MACE_forces:R:3 config_type=Fe12B3Si3 REF_energy=-113.87843945 MACE_energy=-113.05220632076595 pbc="T T T"
Fe       5.40234000       5.43492000       1.53729000      -1.39532100       2.04028400       0.71142300      -1.13025029       1.96064940       0.69570438
Fe       2.09750000       2.10361000       0.54730000       2.35673700      -0.33103000       1.27254800       2.52349471      -0.08680523       1.11577107
Fe       2.84360000       1.73250000       3.81271000       2.28004000      -1.18251600      -0.27344700       2.18547731      -1.02272140      -0.15916690
Fe       0.77541000       4.93717000       1.04317000       1.56096300      -3.83372900       1.76362000       1.40241994      -3.59563899       1.49049990
Fe       0.07665000       3.70431000       3.74351000      -0.75952900      -0.39175400      -2.23189700      -1.02787283      -0.42973588      -2.28963046
Fe       4.77171000       3.58949000       4.78220000      -1.99219600      -4.62409700       0.48420500      -1.78368693      -4.59011972       0.41799506
Fe       4.12430000       1.49867000       1.46476000       0.29771700      -2.38794700       0.28396300       0.31247207      -2.65805831       0.11315366
Fe       0.95387000       5.17746000       5.28728000      -0.57085000      -0.50160400      -1.80733600      -0.95099439      -0.70644517      -1.29912936
Fe       1.93602000       3.09888000       2.36598000      -0.08855100       0.43128300      -0.27209000      -0.14756274       0.59961255      -0.41482491
Fe       5.69037000       1.28357000       4.20026000      -0.40866000      -0.49067900       0.18976600      -0.69207835      -0.26750099       0.19710864
Fe       1.94321000       2.86141000       5.39871000      -0.55906500       0.73218900      -1.80086600      -0.59268025       0.78559577      -1.86120738
Fe       4.33122000       5.38124000       5.25469000      -0.73272900       4.56545400       1.52017900      -0.68812372       4.39486170       1.53395802
B        0.37598000       1.64060000       1.21420000      -3.21263000       2.85095800       0.76078000      -3.08286851       2.71372845       0.90566798
B        1.88110000       4.04794000       3.96741000       2.48956600       2.45119300      -0.32261600       2.69156753       2.30201503      -0.36660581
B        3.63878000       0.94242000       5.41981000      -0.01444500       0.67937600       0.95779200       0.15791575       0.82542105       1.06821549
Si       1.19380000       0.26963000       0.19686000       0.54051800       0.24528300      -1.93219100       0.68416008       0.01291105      -1.91846785
Si       4.57825000       3.47658000       1.16117000       0.15934200       1.26766700      -0.81102600       0.19761797       1.43282651      -0.71963238
Si       1.09558000       0.76720000       2.75124000       0.04909300      -1.52033200       1.50719200      -0.05900735      -1.67059584       1.49059085
54
Lattice="8.579999685 0.0 0.0 0.0 8.579999685 0.0 0.0 0.0 8.5799996" Properties=species:S:1:pos:R:3:REF_forces:R:3:MACE_forces:R:3 config_type=Fe34B10Si10 REF_energy=-356.0869274 MACE_energy=-356.86464549602067 pbc="T T T"
Fe       0.92877000       1.08311000       2.12831000      -0.53214900      -1.15432400       0.53007800      -0.69003061      -1.24185070       0.40251729
Fe       1.12794000       0.45096000       7.37327000      -2.86345100       2.18226700       1.45805300      -2.86191398       2.01314400       1.46177871
Fe       0.91289000       3.61082000       1.96264000      -1.66570100       0.50807500      -4.76654600      -1.66150584       0.27489580      -4.76069655
Fe       0.97242000       3.25012000       3.83975000      -0.85629000      -1.23507100      -0.91491200      -1.07484034      -1.18687742      -0.38425925
Fe       1.43574000       3.84332000       5.84621000      -1.94378300      -0.72872400       4.94145300      -2.06811840      -0.52588613       4.69435620
Fe       0.45897000       5.99881000       1.32384000       1.86679900       1.45939200      -0.33976700       1.64338159       1.57732414      -0.18403390
Fe       0.05714000       6.25044000       6.01250000       0.66851500      -0.88142700       1.67028200       0.74629919      -0.74807004       1.79327363
Fe       1.87526000       7.05991000       7.27744000      -5.90957000       6.81146600       5.95768600      -5.76910582       7.20006094       5.93370796
Fe       4.21220000       0.80536000       3.81626000       0.44958900      -1.97725700       0.54591300       0.56308005      -1.90952749       0.43766012
Fe       2.64196000       0.75311000       5.88605000       0.80305000      -0.92688600      -1.50973400       0.60642670      -1.09504617      -1.56739952
Fe       2.51735000       4.27963000       7.86001000      -0.17185400       2.88247300       0.00075600       0.00845959       2.96666150       0.35887260
Fe       2.46175000       4.76211000       4.38544000       2.27245000       6.36429500      -0.60000700       2.23775206       6.36349702      -0.55404752
Fe       3.99132000       4.46692000       6.09268000      -0.21521200      -1.96607600      -0.25853400      -0.23231542      -2.13593993      -0.16304128
Fe       4.03283000       6.20484000       2.50717000       0.32509400      -1.83048700       1.07686200       0.44381437      -1.72339679       1.16909400
Fe       2.62183000       8.12097000       1.25125000      -5.45108600      -1.04608100      -0.88869000      -5.56217632      -1.03659645      -0.55551871
Fe       2.34208000       7.49949000       3.33705000      -1.45221900       0.10179900       1.96325000      -1.27631791       0.22714664       1.57929757
Fe       4.67554000       0.98699000       8.35162000       1.97529500       0.95938300       0.07305200       1.76172007       0.79380390       0.42261670
Fe       4.68615000       2.28426000       1.60336000       6.03713100       4.39249100       1.56082500       6.19356888       4.34716765       1.16031514
Fe       4.95897000       4.28949000       0.91503000       1.24258400       3.77490300      -1.07876200       0.66355870       3.43859782      -1.24213424
Fe       5.62605000       3.84953000       3.25301000      -4.56775200       3.43217100       2.09526400      -4.61836394       3.49227404       1.92945174
Fe       5.63153000       5.70233000       4.67966000       0.04558900       0.36352900      -0.74034800       0.08496110      -0.06942994      -0.60490393
Fe       5.00954000       6.14620000       6.89198000       4.51113600      -2.60361300       1.43664400       4.52920196      -2.42011573       1.36854660
Fe       5.34723000       7.32984000       0.56425000       3.41130600      -7.55812200      -7.44238600       3.32972812      -7.03700994      -7.25660168
Fe       4.57141000       8.20633000       1.67615000      -2.51651100       6.57056000       9.11650700      -2.60329609       6.17226986       8.69730545
Fe       5.67084000       7.83697000       6.02451000      -0.02983000       3.57151200       0.33120700      -0.09168202       3.71825727       0.40294729
Fe       7.65837000       1.05332000       0.64336000       1.95813700       2.93603900      -3.62028800       1.88941556       2.97381516      -3.50096447
Fe       7.23579000       1.49494000       3.62009000       0.88838800      -1.50203300       3.00240400       0.97546036      -1.60316338       3.04756055
Fe       6.96409000       1.59543000       6.70415000       0.40175100      -2.57633900      -0.54943900       0.53210817      -2.52880960      -0.51552339
Fe       6.97946000       3.05325000       2.27831000       3.01329100      -2.85779700      -7.80747400       2.48357161      -2.98273477      -7.21142437
Fe       7.05854000       3.62734000       7.13255000       0.94483300       2.42104600       2.56329500       1.04706811       2.44394255       2.49281750
Fe       7.47490000       4.49325000       0.92243000      -3.13561000       0.06366500       0.11142200      -2.92664446       0.42148960      -0.34583591
Fe       7.76499000       5.40883000       4.05655000       3.42051700      -2.49950500       1.10150300       3.49451654      -2.67042021       1.15122231
Fe       6.91686000       6.16423000       2.38917000      -4.34160700       0.52717700      -3.24358900      -4.29689649       0.64489966      -3.17422891
Fe       7.31773000       7.39473000       4.73130000      -1.41907300       3.06948200       1.38572900      -1.40529595       3.07615756       1.31678737
B        1.63947000       5.44017000       2.85377000      -1.37965300       1.67099600      -0.34434500      -1.44393618       1.76851832      -0.60046504
B        3.47444000       1.29905000       1.69513000      -6.04542900      -7.46227000      -1.52467000      -5.89995478      -7.26581772      -1.18889842
B        2.31673000       1.42955000       3.77944000      -1.85652800      -2.14982900       3.21956500      -1.76529569      -1.97216185       3.49745281
B        3.17088000       0.01260000       8.16689000      -2.14308300      -0.12737100      -3.63430700      -2.08543167       0.08275968      -3.59076782
B        2.48887000       2.23189000       2.44876000      -1.30373000       3.96631200      -0.94871100      -0.87572796       3.89530502      -1.25243300
B        3.55016000       3.21990000       0.17024000       2.13469500      -3.52588700       0.23974700       2.13415623      -3.42834979       0.19861001
B        3.12966000       3.07291000       4.24572000      -6.99085300       0.34377600      -0.16579100      -7.17211421       0.05088843      -0.32974325
B        2.38358000       5.95301000       6.34325000       2.25901800      -8.76611800      -6.31465800       2.25479737      -9.20577834      -6.53511956
B        4.46260000       2.62992000       4.23823000       7.08507900      -1.75449200       0.40993300       7.23203925      -1.72753179       0.46805914
B        7.51183000       3.59374000       3.85724000       1.49621300      -1.20378300       3.39561400       1.51060375      -1.11072506       3.31277282
Si       0.50050000       1.66927000       5.10425000      -1.02554400      -2.67263500       2.61432900      -0.85538793      -2.93792287       2.51153351
Si       0.41923000       4.50138000       8.15701000       0.82744200      -0.47721100      -2.57541600       1.06611030      -0.48992720      -2.80436465
Si       2.90131000       4.25049000       1.93860000       2.71957100       0.04497600      -0.88170100       2.94044198      -0.05568660      -1.12834343
Si       3.74353000       6.85388000       5.19884000      -1.20766000       1.80214700      -2.20114300      -1.09403833       1.95214063      -2.19145849
Si       3.54209000       6.47938000       8.21357000      -0.45014500      -1.75854100       4.24377300      -0.57274667      -2.00475849       4.43467964
Si       4.55252000       1.74669000       6.40118000       0.28733400       0.20348600      -1.69136000       0.28318052       0.18245586      -1.71968552
Si       5.87020000       3.30923000       5.41310000       1.93974000       0.55942400      -1.14043100       1.56761043       0.72110499      -1.16273003
Si       6.68392000       0.09389000       2.07850000      -2.78148600      -1.30329400       2.70552900      -2.46853276      -1.21031248       2.84118035
Si       7.30980000       7.36953000       0.08595000       4.18267400      -0.22507900      -1.67891000       4.12550793      -0.49370016      -1.67689478
Si       8.41387000       7.50606000       2.97540000       5.08859000       1.78741200      -0.88875800       5.02312929       2.01896899      -0.88289938
54
Lattice="8.579999685 0.0 0.0 0.0 8.579999685 0.0 0.0 0.0 8.5799996" Properties=species:S:1:pos:R:3:REF_forces:R:3:MACE_forces:R:3 config_type=Fe34B10Si10 REF_energy=-359.84864784 MACE_energy=-360.3144112730758 pbc="T T T"
Fe       0.39531000       2.37288000       0.87042000       3.27925500       2.43832800      -1.60261100       3.21913921       2.60111482      -1.74307431
Fe       0.75383000       1.65209000       3.11094000       1.30783500      -0.34615400      -0.09267000       1.26391560      -0.78446860       0.22517242
Fe       1.33201000       3.79282000       7.26231000      -2.40668100      -1.18131200       0.32245500      -2.53394092      -1.05608223       0.18307067
Fe       0.64436000       4.41396000       2.97573000       2.42004200      -2.26182600       0.38963900       2.47408752      -2.05071580       0.22087333
Fe       0.14751000       6.42079000       3.51005000      -3.07002100       1.32407200      -2.30638400      -3.11102039       1.37567912      -2.52895667