54
Lattice="8.579999685 0.0 0.0 0.0 8.579999685 0.0 0.0 0.0 8.5799996" Properties=species:S:1:pos:R:3:REF_forces:R:3:MACE_forces:R:3 config_type=Fe34B10Si10 REF_energy=-352.89092233 MACE_energy=-353.288340397364 pbc="T T T"
Fe       1.46495000       0.71583000       1.12880000       3.73230100      -3.41607500      -3.76209700       3.71017056      -3.45742218      -3.60389102
Fe       0.56244000       2.07917000       1.96452000      -3.31290700       4.06628900       2.54508600      -3.35416466       4.08156263       2.37404223
Fe       0.86636000       2.12990000       5.00906000     -10.85567700      -2.87102900      12.20968700     -10.90437768      -2.93777846      12.19910668
Fe       0.24697000       2.61233000       7.83061000      -0.37811800      -2.03816900      -0.08744800      -0.35021772      -2.08528429       0.10610970
Fe       0.35437000       4.66395000       8.16447000      -1.30300600       1.62250000       0.84662400      -1.36539056       1.73114126       0.81215938
Fe       0.83543000       8.00840000       3.01492000       5.54921000      -2.55787300       0.52513800       5.58108394      -2.64678046       0.45574675
Fe       2.03952000       7.84431000       6.63062000      -4.28706100       1.82495200      -1.68802900      -4.03454679       2.03913970      -1.70023316
Fe       3.34318000       0.11090000       2.96052000      -0.46571400      -0.35056300       0.37864800      -0.48732533      -0.17963050       0.47151093
Fe       3.26317000       2.11539000       1.48699000      -3.47884800      -0.03222100       0.61542300      -3.30729330      -0.27035317       0.22608387
Fe       4.14313000       2.75755000       3.31065000      -0.71378000      -2.73118300       1.93004800      -0.69426292      -2.45166197       1.88455030
Fe       2.55051000       2.67374000       7.19710000      -2.55215900      -0.93589000       1.77261600      -2.32281803      -1.03293621       1.70715899
Fe       3.61327000       2.86500000       5.46497000       1.55763200       0.20514300      -0.56676300       1.46024731       0.32395406      -0.27939130
Fe       2.62400000       4.72550000       1.39174000      -1.08585200      -1.19598700       0.59645400      -1.35449007      -0.95025381       0.69421126
Fe       2.20317000       5.21693000       3.87451000      -3.92870900      -4.38103900      -4.92199500      -3.84862515      -4.32027668      -5.00385681
Fe       3.93082000       4.37819000       8.08226000       1.07616800       0.44807800      -0.99700400       0.99398781       0.25528969      -1.03527309
Fe       2.44961000       7.01753000       1.08943000       0.32119000      -1.55635000       3.27006500       0.44581183      -1.62650698       3.34169992
Fe       3.02500000       6.15780000       5.08193000      -1.08486800       1.64126100       3.95415400      -0.40356220       1.59640583       3.92689349
Fe       5.77712000       0.44616000       0.16142000      -2.43333700       0.07175000       4.13474700      -2.41938581       0.42887997       4.18245509
Fe       5.66964000       0.14892000       2.95259000      -3.67617900       1.90971100       0.12919700      -3.70185364       1.66123981       0.29463518
Fe       5.39484000       2.66317000       1.55162000       4.08183700      -3.39937100       3.88213200       3.98135103      -3.75797819       4.12257706
Fe       5.91309000       3.40423000       8.31953000       8.90196200       5.48305700      -2.72562400       8.70523644       5.46076920      -2.75227303
Fe       4.96126000       4.63305000       3.41410000      -3.60269200      -2.00302700       2.25051900      -3.88008570      -2.29852210       2.39746506
Fe       5.11347000       6.81217000       1.78872000      -0.87770500       0.06714300      -1.61156800      -0.70139267       0.12104324      -1.60823625
Fe       5.00950000       6.45991000       8.24507000      -2.30619500      -0.19808200      -1.52355700      -2.19942283      -0.03190017      -1.71036217
Fe       4.64263000       7.71190000       5.75084000       2.50156800       4.23919200      -1.55456800       2.56238530       4.25705223      -1.61342512
Fe       7.32285000       0.33022000       5.03535000      -0.99210900      -0.59745100       4.73628300      -1.00809531      -0.37371805       4.72630723
Fe       6.75330000       1.32958000       7.05071000       0.53851300       2.01290400       0.36400700       0.48646186       1.87294059       0.32334412
Fe       6.82686000       2.53028000       3.66692000      -0.08907100      -0.12987400      -0.26318300       0.03456178      -0.19805487      -0.23555509
Fe       6.83617000       5.56618000       0.59386000       1.74434500       1.47371700      -3.32847200       1.80364478       1.81390262      -3.47441629
Fe       8.27091000       4.29855000       2.87718000       3.23308900       0.33980500       1.37352500       3.10735976       0.18378481       1.34336583
Fe       6.58774000       4.90718000       4.97515000      -1.87594500       0.58060600      -0.05143700      -2.07273560       0.56124937      -0.56918610
Fe       6.86773000       6.79187000       3.27473000       1.52763600      -2.76254700       0.67579100       1.47059213      -2.45875334       0.35816000
Fe       8.09083000       8.29691000       0.84396000      -4.18921500      -1.95965200       9.56442300      -4.25231731      -2.28182278       9.61373366
Fe       6.62133000       7.67903000       7.47205000      -3.65417600       1.51975600      -3.32990400      -3.97109343       1.31330742      -3.47146318
B        3.45077000       6.81738000       6.75435000       2.04131500      -2.79808300       3.80923700       1.93319454      -2.82061855       3.93082926
B        4.67436000       1.10514000       4.73414000       0.75036200       0.95391600      -0.52852700       0.80947003       0.90613726      -0.41981525
B        6.18153000       2.20088000       5.47737000      -4.49435700      -3.20609500      -2.27763700      -4.64172427      -3.16650138      -2.41841179
B        5.08133000       4.10197000       6.35983000       0.35152900       0.25548900      -0.65354500       0.50537957       0.34943544      -0.59932499
B        4.48663000       4.29393000       1.40792000      -0.27448100       1.04603100       0.21283300      -0.22633426       1.20515289       0.23259243
B        4.96286000       5.88068000       6.14703000       0.60492000      -1.85032800       0.29314600       0.48176650      -1.90314210       0.13131395
B        8.17242000       5.65216000       5.55863000       1.00443800       0.65677900      -0.69824300       1.02923217       0.76747865      -0.25516040
B        7.98743000       6.92663000       6.60530000       5.86774900       2.58695800      -4.05103700       5.76174461       2.29513050      -3.67471114
B        7.10769000       5.72812000       6.91109000      -2.33709700      -3.34606800       1.34633400      -2.11727102      -3.38838072       1.57240214
B        7.81665000       6.81498000       8.33858000       5.04350100      -2.41043400       0.97359300       5.04608638      -2.61561422       0.56587326
Si       0.06983000       0.14925000       7.74742000       4.12649000       2.60901100      -8.87608100       4.00738625       2.61007470      -8.78739817
Si       1.93337000       2.41223000       3.74634000      10.14534600       2.98113100     -12.18526000      10.23757638       3.05849498     -12.01039394
Si       0.75978000       6.02813000       1.69309000      -4.13401100      -0.74920300       1.02787300      -4.13931024      -0.84448932       0.97547007
Si       2.22023000       5.10313000       7.16329000      -1.58663400       1.19675500      -1.89967800      -1.65050749       1.16314691      -1.87064180
Si       3.27754000       8.17117000       8.35443000       4.04667900       4.58101600      -2.24829100       3.93111190       4.55657943      -2.39269598
Si       4.48145000       2.18337000       8.34202000      -5.72220500      -5.96162700      -4.99603400      -5.47374816      -5.94227953      -5.14158987
Si       6.36439000       4.54151000       2.12641000       2.28764700      -2.33178900       1.39384200       2.54186972      -2.13763472       1.31407144
Si       4.52267000       6.51460000       3.75633000       0.42177200       5.22743800       1.25328700       0.12225301       5.29981238       1.34244568
Si       7.68278000       0.22257000       3.11016000      -0.17295300       4.89916800      -3.86478000      -0.25095530       4.84081969      -3.94138099
Si       7.35363000       3.38410000       6.13231000       4.40786200       1.27045000       2.62604800       4.38334186       1.42436947       2.94277199
54
Lattice="8.579999685 0.0 0.0 0.0 8.579999685 0.0 0.0 0.0 8.5799996" Properties=species:S:1:pos:R:3:REF_forces:R:3:MACE_forces:R:3 config_type=Fe34B10Si10 REF_energy=-354.71875992 MACE_energy=-355.37217279110524 pbc="T T T"
Fe       0.43313000       1.19321000       2.96848000       1.47291300       2.99028000       0.61180900       1.44834284       2.90262774       0.34772298
Fe       0.91365000       1.12516000       8.09995000       2.76260400      -2.00335600       1.20968300       2.40211133      -1.91756743       1.05945553
Fe       1.17142000       2.67870000       5.23446000      -1.90323000       6.04651700       0.58026800      -1.72454366       6.14350817       0.38919216
Fe       0.60772000       3.85484000       0.87278000       2.66909500       4.89444800       4.53699300       2.59249956       5.06645001       4.17240634
Fe       1.41565000       3.44858000       3.01161000      -0.29549500       2.03729500      -0.74017400      -0.04586197       1.92780984      -0.65676746
Fe       0.04226000       2.91249000       8.09734000      -3.39897200      -2.84207300      -2.69442200      -2.80031868      -2.97214328      -2.42968632
Fe       1.33282000       7.09057000       5.22634000      -0.45239700      -1.35392500       0.92503500      -0.22908194      -1.49904449       0.96242732
Fe       2.06045000       7.92051000       0.98063000      -3.11321000      -0.30108300      -2.49280600      -3.22687657      -0.42000104      -2.46304433
Fe       2.03627000       8.24295000       3.50701000      -1.42216600       4.38122900       0.88517600      -1.50046859       4.11162571       0.64306983
Fe       0.01253000       8.02686000       7.00667000       2.58679700       0.98610200     -11.80201700       2.45180761       0.89500940     -11.88494213
Fe       3.00353000       0.57289000       6.13981000      -1.03922300       0.18357300       0.93137300      -0.77519786       0.12621936       1.00188179
Fe       3.69949000       2.65196000       7.51811000       2.76433000      -4.34399200      -3.80269000       2.60417244      -4.11525201      -3.67074443
Fe       2.94478000       6.44154000       3.03987000       7.21319500      -3.66655800      -1.17614100       6.99581255      -3.47024827      -1.01074075
Fe       2.94309000       5.75189000       6.64956000      -6.24071800      -0.74678300       3.86021800      -6.43649411      -0.63866561       3.94253630
Fe       3.71160000       8.39321000       1.86324000       2.24845700      -0.43546600       0.28887200       2.29490750      -0.13211285       0.68669606
Fe       4.07810000       8.43915000       4.32840000       2.88035800       1.28304800      -0.49181300       2.85241124       1.33896213      -0.75691634
Fe       5.57499000       0.73262000       6.31633000      -3.12774100      -1.68249800      -0.98058200      -2.81630762      -1.70507344      -0.92259716
Fe       4.70712000       1.94493000       1.65492000      -2.04675700       4.97917500      -3.67899600      -2.15346331       4.78505617      -3.43464684
Fe       4.73401000       4.18392000       1.24748000       0.71501700       1.80608500      -0.06999200       0.72300217       2.00646734      -0.11146407
Fe       4.56687000       4.22266000       4.39618000       0.73801700       3.32591500      -2.10569900       0.52169405       3.16586051      -2.18041709
Fe       4.51224000       4.61167000       7.05684000       2.53211900      -0.41024200       0.53825400       2.96763861      -0.75402588       0.48351764
Fe       6.32808000       6.81945000       4.24288000      -3.20445400      -0.33519400      -1.28892300      -2.79327534      -0.23905177      -1.08362610
Fe       6.22240000       7.17309000       0.16230000      -3.30904600      -2.75215800       1.90373500      -3.52445457      -2.98936645       2.05861732
Fe       4.54224000       7.44382000       7.03838000       0.17895600      -5.02037800      -8.74618400       0.29068533      -5.25185986      -8.87662179
Fe       4.73272000       8.55832000       8.35561000      -0.10588400       8.96287400       6.54083400      -0.25671900       9.39060028       6.19261736
Fe       7.67285000       2.82429000       2.17742000      -2.12886900      -0.76272600      -2.06587500      -2.09029552      -0.83230937      -1.98538090
Fe       6.74071000       1.77406000       4.33655000       0.47479500       0.50025500      -0.42349800       0.07925919       0.42152794      -0.46286193
Fe       7.16362000       1.61896000       6.68131000       5.11373900       1.83737400       0.70818800       4.73664155       1.65187064       0.64357494
Fe       6.73653000       4.13840000       7.84564000       0.19062300       0.32905600       3.59274800       0.15292364       0.48407197       3.62737245
Fe       6.61248000       5.35948000       2.44590000       0.96755600      -0.77403900      -0.47053600       0.84457269      -0.66289184      -0.48207502
Fe       8.39074000       4.95678000       4.82580000       0.50677700       3.21370700       1.22596300       0.61264818       3.12325493       1.08271047
Fe       6.62275000       6.29700000       6.29237000       0.91106900      -0.58785400       1.74696000       0.81906497      -0.48042674       1.60308572
Fe       8.00875000       8.14674000       2.12563000      -1.25903800      -1.94608200      -3.37077000      -0.86978058      -1.94463027      -3.40932478
Fe       7.96861000       8.10559000       4.08816000       1.24434400       0.03207600       4.40361200       0.70952233       0.03570619       4.53590638
B        3.14587000       1.61638000       2.59818000      -3.96044800      -1.57388800      -2.24367700      -3.97889480      -1.49715570      -2.04636806
B        4.07212000       1.93087000       3.78701000       0.55534200       0.12762300      -3.25123200       0.43466051       0.17125876      -3.18345634
B        2.24412000       1.90783000       4.05913000      -1.80380000      -9.70850100      -5.48536600      -1.85277725      -9.96705642      -5.60568812
B        2.90130000       3.06657000       4.45062000       2.48509300       7.60479000      -1.50334300       2.87203498       7.27269931      -1.52916088
B        2.82587000       3.80138000       5.80651000       0.21675600       2.27927400       3.92227300       0.30297337       2.13194092       3.88614229
B        2.60929000       5.04297000       1.66311000       0.12617300      -0.77075900      -0.46531300      -0.04821441      -0.78452449      -0.42366113
B        2.47198000       4.95014000       4.32601000      -0.76752800      -1.31946700       0.35153300      -0.81587539      -1.21723689       0.38308013
B        2.73354000       7.81887000       7.66829000      -1.47869400      -0.15377200       0.00458000      -1.52278086      -0.16958864       0.20788970
B        5.68071000       2.28134000       7.79544000      -0.95924500       0.41857400       1.11780500      -0.95266036       0.35546480       1.05432574
B        7.77536000       3.70665000       3.76574000      -0.44877700      -1.48394500      -0.38974400      -0.54988359      -1.39434770      -0.05682271
Si       0.79518000       0.92195000       5.77957000      -1.66645900      -4.94136200      -1.10925300      -1.62093894      -5.06821715      -0.94927005
Si       0.88055000       4.20706000       6.73551000       1.15626000       3.58432200      -0.32349000       1.11165039       3.74252150      -0.23000439
Si       1.15025000       6.44729000       2.43826000      -7.77651300      -1.83655100      -1.54918700      -7.87194473      -1.71120139      -1.71031901
Si       2.82820000       3.29548000       0.50208000      -4.05499500       1.58525200       5.32597100      -4.10471281       1.44387279       5.25281795
Si       4.14031000       6.38272000       0.30005000      -2.16949800      -2.44928300       2.57761000      -2.25816880      -2.45079564       2.51970655
Si       3.68345000       6.43010000       5.01209000       3.98893100       0.98565200      -2.13453700       3.84760568       1.16834095      -2.10553090
Si       5.73751000       0.59059000       2.53265000       5.08228400      -4.90021500       2.23852200       5.11123427      -4.88935105       2.49496790
Si       4.51163000       2.47994000       5.36819000       2.60737700      -2.86786400       7.12589500       2.77106821      -2.65922412       7.03616271
Si       6.43436000       3.75222000       5.86206000       1.38008400       0.66155200      -3.64612400       1.54622095       0.75809010      -3.74916205
Si       8.06432000       7.52318000       8.55473000       2.36409700      -3.06603600      11.34847700       2.72282515      -2.78744768      11.14341751
18
Lattice="6.5 0.0 0.0 0.0 6.5 0.0 0.0 0.0 6.5" Properties=species:S:1:pos:R:3:REF_forces:R:3:MACE_forces:R:3 config_type=Fe12B3Si3 REF_energy=-113.87843945 MACE_energy=-113.06519499194198 pbc="T T T"
Fe       5.40234000       5.43492000       1.53729000      -1.39532100       2.04028400       0.71142300      -1.04096962       1.88929415       0.69909967
Fe       2.09750000       2.10361000       0.54730000       2.35673700      -0.33103000       1.27254800       2.51784613      -0.07091522       1.21975623
Fe       2.84360000       1.73250000       3.81271000       2.28004000      -1.18251600      -0.27344700       2.18994707      -0.98063278      -0.19905046
Fe       0.77541000       4.93717000       1.04317000       1.56096300      -3.83372900       1.76362000       1.31439363      -3.47355142       1.52428756
Fe       0.07665000       3.70431000       3.74351000      -0.75952900      -0.39175400      -2.23189700      -1.11729958      -0.47420440      -2.27847305
Fe       4.77171000       3.58949000       4.78220000      -1.99219600      -4.62409700       0.48420500      -1.70158244      -4.52060978       0.39524403
Fe       4.12430000       1.49867000       1.46476000       0.29771700      -2.38794700       0.28396300       0.30604847      -2.64904506       0.10403006
Fe       0.95387000       5.17746000       5.28728000      -0.57085000      -0.50160400      -1.80733600      -0.94630183      -0.70216241      -1.32511901
Fe       1.93602000       3.09888000       2.36598000      -0.08855100       0.43128300      -0.27209000      -0.20135877       0.54758670      -0.49521880
Fe       5.69037000       1.28357000       4.20026000      -0.40866000      -0.49067900       0.18976600      -0.77150284      -0.28686585       0.24506692
Fe       1.94321000       2.86141000       5.39871000      -0.55906500       0.73218900      -1.80086600      -0.51757296       0.72021567      -1.90785873
Fe       4.33122000       5.38124000       5.25469000      -0.73272900       4.56545400       1.52017900      -0.60974297       4.34179573       1.53249594
B        0.37598000       1.64060000       1.21420000      -3.21263000       2.85095800       0.76078000      -3.04123082       2.71938572       0.87679507
B        1.88110000       4.04794000       3.96741000       2.48956600       2.45119300      -0.32261600       2.68298475       2.35793752      -0.30337045
B        3.63878000       0.94242000       5.41981000      -0.01444500       0.67937600       0.95779200       0.15222131       0.82639969       1.10336177
Si       1.19380000       0.26963000       0.19686000       0.54051800       0.24528300      -1.93219100       0.66333564      -0.02299465      -1.88523743
Si       4.57825000       3.47658000       1.16117000       0.15934200       1.26766700      -0.81102600       0.18868756       1.45452110      -0.75804989
Si       1.09558000       0.76720000       2.75124000       0.04909300      -1.52033200       1.50719200      -0.06790273      -1.67615472       1.45224057
54
Lattice="8.579999685 0.0 0.0 0.0 8.579999685 0.0 0.0 0.0 8.5799996" Properties=species:S:1:pos:R:3:REF_forces:R:3:MACE_forces:R:3 config_type=Fe34B10Si10 REF_energy=-356.0869274 MACE_energy=-356.94931116431246 pbc="T T T"
Fe       0.92877000       1.08311000       2.12831000      -0.53214900      -1.15432400       0.53007800      -0.69246186      -1.21224473       0.41840118
Fe       1.12794000       0.45096000       7.37327000      -2.86345100       2.18226700       1.45805300      -2.84844971       1.98193234       1.46055067
Fe       0.91289000       3.61082000       1.96264000      -1.66570100       0.50807500      -4.76654600      -1.67690098       0.33135472      -4.78448805
Fe       0.97242000       3.25012000       3.83975000      -0.85629000      -1.23507100      -0.91491200      -1.06724930      -1.21045529      -0.26315132
Fe       1.43574000       3.84332000       5.84621000      -1.94378300      -0.72872400       4.94145300      -2.07425756      -0.57391285       4.66524736
Fe       0.45897000       5.99881000       1.32384000       1.86679900       1.45939200      -0.33976700       1.64261908       1.56655892      -0.15836130
Fe       0.05714000       6.25044000       6.01250000       0.66851500      -0.88142700       1.67028200       0.72974825      -0.76865589       1.75852098
Fe       1.87526000       7.05991000       7.27744000      -5.90957000       6.81146600       5.95768600      -5.76100167       7.20472490       5.95537984
Fe       4.21220000       0.80536000       3.81626000       0.44958900      -1.97725700       0.54591300       0.52859859      -1.90631052       0.45072005
Fe       2.64196000       0.75311000       5.88605000       0.80305000      -0.92688600      -1.50973400       0.55711315      -1.06869271      -1.58024513
Fe       2.51735000       4.27963000       7.86001000      -0.17185400       2.88247300       0.00075600       0.00816881       2.96506234       0.25585422
Fe       2.46175000       4.76211000       4.38544000       2.27245000       6.36429500      -0.60000700       2.19071118       6.31452022      -0.62385409
Fe       3.99132000       4.46692000       6.09268000      -0.21521200      -1.96607600      -0.25853400      -0.19344922      -2.20067643      -0.18629304
Fe       4.03283000       6.20484000       2.50717000       0.32509400      -1.83048700       1.07686200       0.42290733      -1.75643231       1.12465445
Fe       2.62183000       8.12097000       1.25125000      -5.45108600      -1.04608100      -0.88869000      -5.52510275      -1.08470376      -0.61106055
Fe       2.34208000       7.49949000       3.33705000      -1.45221900       0.10179900       1.96325000      -1.24071909       0.20069908       1.60998576
Fe       4.67554000       0.98699000       8.35162000       1.97529500       0.95938300       0.07305200       1.68445822       0.81744598       0.37100268
Fe       4.68615000       2.28426000       1.60336000       6.03713100       4.39249100       1.56082500       6.21556714       4.34037046       1.17096304
Fe       4.95897000       4.28949000       0.91503000       1.24258400       3.77490300      -1.07876200       0.74108603       3.50978904      -1.25733068
Fe       5.62605000       3.84953000       3.25301000      -4.56775200       3.43217100       2.09526400      -4.57431903       3.51973623       1.90700843
Fe       5.63153000       5.70233000       4.67966000       0.04558900       0.36352900      -0.74034800       0.03267556      -0.05611221      -0.59832443
Fe       5.00954000       6.14620000       6.89198000       4.51113600      -2.60361300       1.43664400       4.56251065      -2.38580979       1.41300065
Fe       5.34723000       7.32984000       0.56425000       3.41130600      -7.55812200      -7.44238600       3.38046002      -7.00846762      -7.21267570
Fe       4.57141000       8.20633000       1.67615000      -2.51651100       6.57056000       9.11650700      -2.64877087       6.09945916       8.66466631
Fe       5.67084000       7.83697000       6.02451000      -0.02983000       3.57151200       0.33120700      -0.08683300       3.65807753       0.38058967
Fe       7.65837000       1.05332000       0.64336000       1.95813700       2.93603900      -3.62028800       1.88612303       2.96006523      -3.52695439
Fe       7.23579000       1.49494000       3.62009000       0.88838800      -1.50203300       3.00240400       0.96207385      -1.55705723       3.06461199
Fe       6.96409000       1.59543000       6.70415000       0.40175100      -2.57633900      -0.54943900       0.51902366      -2.54048645      -0.53452278
Fe       6.97946000       3.05325000       2.27831000       3.01329100      -2.85779700      -7.80747400       2.45891894      -2.94637180      -7.23924175
Fe       7.05854000       3.62734000       7.13255000       0.94483300       2.42104600       2.56329500       1.02869549       2.46385873       2.48884320
Fe       7.47490000       4.49325000       0.92243000      -3.13561000       0.06366500       0.11142200      -2.91102142       0.44061557      -0.26794946
Fe       7.76499000       5.40883000       4.05655000       3.42051700      -2.49950500       1.10150300       3.50606801      -2.66888362       1.12132963
Fe       6.91686000       6.16423000       2.38917000      -4.34160700       0.52717700      -3.24358900      -4.31953036       0.62269487      -3.19187037
Fe       7.31773000       7.39473000       4.73130000      -1.41907300       3.06948200       1.38572900      -1.44404404       3.05682054       1.36238082
B        1.63947000       5.44017000       2.85377000      -1.37965300       1.67099600      -0.34434500      -1.49719229       1.77984860      -0.61920211
B        3.47444000       1.29905000       1.69513000      -6.04542900      -7.46227000      -1.52467000      -5.89118195      -7.22117818      -1.16792864
B        2.31673000       1.42955000       3.77944000      -1.85652800      -2.14982900       3.21956500      -1.74461171      -1.98933678       3.46800487
B        3.17088000       0.01260000       8.16689000      -2.14308300      -0.12737100      -3.63430700      -2.01386474       0.10828385      -3.58493539
B        2.48887000       2.23189000       2.44876000      -1.30373000       3.96631200      -0.94871100      -0.89245777       3.86150169      -1.28444782
B        3.55016000       3.21990000       0.17024000       2.13469500      -3.52588700       0.23974700       2.16820627      -3.43863118       0.27891230
B        3.12966000       3.07291000       4.24572000      -6.99085300       0.34377600      -0.16579100      -7.15179861       0.12409175      -0.23410557
B        2.38358000       5.95301000       6.34325000       2.25901800      -8.76611800      -6.31465800       2.20759472      -9.21563840      -6.56768286
B        4.46260000       2.62992000       4.23823000       7.08507900      -1.75449200       0.40993300       7.21731462      -1.79669906       0.45241544
B        7.51183000       3.59374000       3.85724000       1.49621300      -1.20378300       3.39561400       1.52854065      -1.09964798       3.25808413
Si       0.50050000       1.66927000       5.10425000      -1.02554400      -2.67263500       2.61432900      -0.81359133      -2.91579046       2.56416568
Si       0.41923000       4.50138000       8.15701000       0.82744200      -0.47721100      -2.57541600       1.06047468      -0.43012145      -2.81364055
Si       2.90131000       4.25049000       1.93860000       2.71957100       0.04497600      -0.88170100       2.91322472      -0.03430127      -1.09420099
Si       3.74353000       6.85388000       5.19884000      -1.20766000       1.80214700      -2.20114300      -1.07770932       2.02152010      -2.17673196
Si       3.54209000       6.47938000       8.21357000      -0.45014500      -1.75854100       4.24377300      -0.54746191      -2.00624343       4.45018780
Si       4.55252000       1.74669000       6.40118000       0.28733400       0.20348600      -1.69136000       0.27517770       0.16996596      -1.67003668
Si       5.87020000       3.30923000       5.41310000       1.93974000       0.55942400      -1.14043100       1.57714545       0.74638015      -1.10671422
Si       6.68392000       0.09389000       2.07850000      -2.78148600      -1.30329400       2.70552900      -2.47679024      -1.23223322       2.83082108
Si       7.30980000       7.36953000       0.08595000       4.18267400      -0.22507900      -1.67891000       4.12513759      -0.52110636      -1.68104032
Si       8.41387000       7.50606000       2.97540000       5.08859000       1.78741200      -0.88875800       5.04042736       1.98082299      -0.90931206
54
Lattice="8.579999685 0.0 0.0 0.0 8.579999685 0.0 0.0 0.0 8.5799996" Properties=species:S:1:pos:R:3:REF_forces:R:3:MACE_forces:R:3 config_type=Fe34B10Si10 REF_energy=-359.84864784 MACE_energy=-360.3126872741359 pbc="T T T"
Fe       0.39531000       2.37288000       0.87042000       3.27925500       2.43832800      -1.60261100       3.21164544       2.67041057      -1.77939961
Fe       0.75383000       1.65209000       3.11094000       1.30783500      -0.34615400      -0.09267000       1.28269639      -0.83326119       0.15817313
Fe       1.33201000       3.79282000       7.26231000      -2.40668100      -1.18131200       0.32245500      -2.52117538      -1.07894398       0.22475701
Fe       0.64436000       4.41396000       2.97573000       2.42004200      -2.26182600       0.38963900       2.48289416      -2.09264557       0.24795296
Fe       0.14751000       6.42079000       3.51005000      -3.07002100       1.32407200      -2.30638400      -3.11486870       1.34850679      -2.48099312