54
Lattice="8.579999685 0.0 0.0 0.0 8.579999685 0.0 0.0 0.0 8.5799996" Properties=species:S:1:pos:R:3:REF_forces:R:3:MACE_forces:R:3 config_type=Fe34B10Si10 REF_energy=-352.89092233 MACE_energy=-353.27952033528595 pbc="T T T"
Fe       1.46495000       0.71583000       1.12880000       3.73230100      -3.41607500      -3.76209700       3.74083995      -3.48655879      -3.66005738
Fe       0.56244000       2.07917000       1.96452000      -3.31290700       4.06628900       2.54508600      -3.36755771       4.11099536       2.40388103
Fe       0.86636000       2.12990000       5.00906000     -10.85567700      -2.87102900      12.20968700     -10.92762312      -2.93418978      12.18845837
Fe       0.24697000       2.61233000       7.83061000      -0.37811800      -2.03816900      -0.08744800      -0.32952708      -2.08336884       0.11721703
Fe       0.35437000       4.66395000       8.16447000      -1.30300600       1.62250000       0.84662400      -1.36776262       1.69701884       0.81831398
Fe       0.83543000       8.00840000       3.01492000       5.54921000      -2.55787300       0.52513800       5.56011508      -2.64455105       0.44997368
Fe       2.03952000       7.84431000       6.63062000      -4.28706100       1.82495200      -1.68802900      -4.02097255       2.03497769      -1.69183975
Fe       3.34318000       0.11090000       2.96052000      -0.46571400      -0.35056300       0.37864800      -0.47787655      -0.18153074       0.48445645
Fe       3.26317000       2.11539000       1.48699000      -3.47884800      -0.03222100       0.61542300      -3.31727707      -0.27709163       0.21791372
Fe       4.14313000       2.75755000       3.31065000      -0.71378000      -2.73118300       1.93004800      -0.68436255      -2.47225539       1.90237855
Fe       2.55051000       2.67374000       7.19710000      -2.55215900      -0.93589000       1.77261600      -2.33490408      -1.03614853       1.70943844
Fe       3.61327000       2.86500000       5.46497000       1.55763200       0.20514300      -0.56676300       1.46284896       0.33045795      -0.27169118
Fe       2.62400000       4.72550000       1.39174000      -1.08585200      -1.19598700       0.59645400      -1.36778780      -0.92854095       0.70882503
Fe       2.20317000       5.21693000       3.87451000      -3.92870900      -4.38103900      -4.92199500      -3.84111741      -4.34545766      -5.00185954
Fe       3.93082000       4.37819000       8.08226000       1.07616800       0.44807800      -0.99700400       1.02632681       0.26442152      -1.06710085
Fe       2.44961000       7.01753000       1.08943000       0.32119000      -1.55635000       3.27006500       0.45514971      -1.63839112       3.33075857
Fe       3.02500000       6.15780000       5.08193000      -1.08486800       1.64126100       3.95415400      -0.43628613       1.57089734       3.90526954
Fe       5.77712000       0.44616000       0.16142000      -2.43333700       0.07175000       4.13474700      -2.41278603       0.43422682       4.19052241
Fe       5.66964000       0.14892000       2.95259000      -3.67617900       1.90971100       0.12919700      -3.70203896       1.65993834       0.28572592
Fe       5.39484000       2.66317000       1.55162000       4.08183700      -3.39937100       3.88213200       3.96908336      -3.75884841       4.10787825
Fe       5.91309000       3.40423000       8.31953000       8.90196200       5.48305700      -2.72562400       8.69732913       5.50017280      -2.76072851
Fe       4.96126000       4.63305000       3.41410000      -3.60269200      -2.00302700       2.25051900      -3.86461334      -2.26620877       2.40335523
Fe       5.11347000       6.81217000       1.78872000      -0.87770500       0.06714300      -1.61156800      -0.67589291       0.12092873      -1.59453581
Fe       5.00950000       6.45991000       8.24507000      -2.30619500      -0.19808200      -1.52355700      -2.20733413      -0.03521976      -1.68398276
Fe       4.64263000       7.71190000       5.75084000       2.50156800       4.23919200      -1.55456800       2.56836151       4.24784762      -1.64614657
Fe       7.32285000       0.33022000       5.03535000      -0.99210900      -0.59745100       4.73628300      -1.02990844      -0.38585256       4.73931364
Fe       6.75330000       1.32958000       7.05071000       0.53851300       2.01290400       0.36400700       0.47918703       1.87324218       0.33832316
Fe       6.82686000       2.53028000       3.66692000      -0.08907100      -0.12987400      -0.26318300       0.03032962      -0.19691348      -0.24667952
Fe       6.83617000       5.56618000       0.59386000       1.74434500       1.47371700      -3.32847200       1.81618361       1.84874616      -3.45439040
Fe       8.27091000       4.29855000       2.87718000       3.23308900       0.33980500       1.37352500       3.12215344       0.18736469       1.36515014
Fe       6.58774000       4.90718000       4.97515000      -1.87594500       0.58060600      -0.05143700      -2.06605481       0.53117759      -0.61268672
Fe       6.86773000       6.79187000       3.27473000       1.52763600      -2.76254700       0.67579100       1.46666838      -2.45849324       0.35037276
Fe       8.09083000       8.29691000       0.84396000      -4.18921500      -1.95965200       9.56442300      -4.28962072      -2.30479967       9.57979123
Fe       6.62133000       7.67903000       7.47205000      -3.65417600       1.51975600      -3.32990400      -3.97003997       1.32201615      -3.46886912
B        3.45077000       6.81738000       6.75435000       2.04131500      -2.79808300       3.80923700       1.90200154      -2.78663583       3.95671015
B        4.67436000       1.10514000       4.73414000       0.75036200       0.95391600      -0.52852700       0.82096499       0.88516707      -0.41273403
B        6.18153000       2.20088000       5.47737000      -4.49435700      -3.20609500      -2.27763700      -4.65806880      -3.16344405      -2.40266874
B        5.08133000       4.10197000       6.35983000       0.35152900       0.25548900      -0.65354500       0.52408952       0.37296616      -0.61475254
B        4.48663000       4.29393000       1.40792000      -0.27448100       1.04603100       0.21283300      -0.21346923       1.19006770       0.23917098
B        4.96286000       5.88068000       6.14703000       0.60492000      -1.85032800       0.29314600       0.49875819      -1.91822769       0.14249227
B        8.17242000       5.65216000       5.55863000       1.00443800       0.65677900      -0.69824300       1.00772121       0.78955678      -0.28484110
B        7.98743000       6.92663000       6.60530000       5.86774900       2.58695800      -4.05103700       5.77328598       2.31505332      -3.73236291
B        7.10769000       5.72812000       6.91109000      -2.33709700      -3.34606800       1.34633400      -2.11996349      -3.38548737       1.63661263
B        7.81665000       6.81498000       8.33858000       5.04350100      -2.41043400       0.97359300       5.09194942      -2.64705469       0.58979924
Si       0.06983000       0.14925000       7.74742000       4.12649000       2.60901100      -8.87608100       4.03430670       2.61252987      -8.76244962
Si       1.93337000       2.41223000       3.74634000      10.14534600       2.98113100     -12.18526000      10.23729993       3.06621143     -12.00901279
Si       0.75978000       6.02813000       1.69309000      -4.13401100      -0.74920300       1.02787300      -4.14284938      -0.83325364       0.98006213
Si       2.22023000       5.10313000       7.16329000      -1.58663400       1.19675500      -1.89967800      -1.64184835       1.15086274      -1.89596402
Si       3.27754000       8.17117000       8.35443000       4.04667900       4.58101600      -2.24829100       3.92916145       4.57848367      -2.40359213
Si       4.48145000       2.18337000       8.34202000      -5.72220500      -5.96162700      -4.99603400      -5.50118936      -5.95769942      -5.13218352
Si       6.36439000       4.54151000       2.12641000       2.28764700      -2.33178900       1.39384200       2.52830017      -2.12510522       1.33588072
Si       4.52267000       6.51460000       3.75633000       0.42177200       5.22743800       1.25328700       0.11948080       5.30066788       1.34489186
Si       7.68278000       0.22257000       3.11016000      -0.17295300       4.89916800      -3.86478000      -0.26261236       4.82540921      -3.94703772
Si       7.35363000       3.38410000       6.13231000       4.40786200       1.27045000       2.62604800       4.36944847       1.42992265       2.93523016
54
Lattice="8.579999685 0.0 0.0 0.0 8.579999685 0.0 0.0 0.0 8.5799996" Properties=species:S:1:pos:R:3:REF_forces:R:3:MACE_forces:R:3 config_type=Fe34B10Si10 REF_energy=-354.71875992 MACE_energy=-355.3650910413733 pbc="T T T"
Fe       0.43313000       1.19321000       2.96848000       1.47291300       2.99028000       0.61180900       1.45961491       2.92019599       0.32825681
Fe       0.91365000       1.12516000       8.09995000       2.76260400      -2.00335600       1.20968300       2.41399422      -1.96222841       1.06621245
Fe       1.17142000       2.67870000       5.23446000      -1.90323000       6.04651700       0.58026800      -1.74511608       6.12489217       0.41192042
Fe       0.60772000       3.85484000       0.87278000       2.66909500       4.89444800       4.53699300       2.55781114       5.01369593       4.18796350
Fe       1.41565000       3.44858000       3.01161000      -0.29549500       2.03729500      -0.74017400      -0.08068306       1.92533550      -0.67496796
Fe       0.04226000       2.91249000       8.09734000      -3.39897200      -2.84207300      -2.69442200      -2.79848648      -2.91230551      -2.39222656
Fe       1.33282000       7.09057000       5.22634000      -0.45239700      -1.35392500       0.92503500      -0.22710836      -1.50962441       0.96951510
Fe       2.06045000       7.92051000       0.98063000      -3.11321000      -0.30108300      -2.49280600      -3.17280164      -0.41154861      -2.42715517
Fe       2.03627000       8.24295000       3.50701000      -1.42216600       4.38122900       0.88517600      -1.48421059       4.12335291       0.65378596
Fe       0.01253000       8.02686000       7.00667000       2.58679700       0.98610200     -11.80201700       2.44432227       0.90830928     -11.87574925
Fe       3.00353000       0.57289000       6.13981000      -1.03922300       0.18357300       0.93137300      -0.79156988       0.11613618       1.01168868
Fe       3.69949000       2.65196000       7.51811000       2.76433000      -4.34399200      -3.80269000       2.59831876      -4.11344938      -3.67625711
Fe       2.94478000       6.44154000       3.03987000       7.21319500      -3.66655800      -1.17614100       7.01669629      -3.46901287      -1.01948570
Fe       2.94309000       5.75189000       6.64956000      -6.24071800      -0.74678300       3.86021800      -6.46092005      -0.64497988       3.89152480
Fe       3.71160000       8.39321000       1.86324000       2.24845700      -0.43546600       0.28887200       2.24264430      -0.15289127       0.69148847
Fe       4.07810000       8.43915000       4.32840000       2.88035800       1.28304800      -0.49181300       2.85725807       1.35976326      -0.75843321
Fe       5.57499000       0.73262000       6.31633000      -3.12774100      -1.68249800      -0.98058200      -2.83586750      -1.68696659      -0.91249228
Fe       4.70712000       1.94493000       1.65492000      -2.04675700       4.97917500      -3.67899600      -2.14850929       4.77267960      -3.46081085
Fe       4.73401000       4.18392000       1.24748000       0.71501700       1.80608500      -0.06999200       0.71530630       2.02244558      -0.10546523
Fe       4.56687000       4.22266000       4.39618000       0.73801700       3.32591500      -2.10569900       0.50989136       3.16474084      -2.19143088
Fe       4.51224000       4.61167000       7.05684000       2.53211900      -0.41024200       0.53825400       2.97326603      -0.75440575       0.48585716
Fe       6.32808000       6.81945000       4.24288000      -3.20445400      -0.33519400      -1.28892300      -2.79371153      -0.24230870      -1.10027072
Fe       6.22240000       7.17309000       0.16230000      -3.30904600      -2.75215800       1.90373500      -3.51767024      -3.02322570       2.07638691
Fe       4.54224000       7.44382000       7.03838000       0.17895600      -5.02037800      -8.74618400       0.28557521      -5.24041779      -8.91411138
Fe       4.73272000       8.55832000       8.35561000      -0.10588400       8.96287400       6.54083400      -0.21328830       9.44584477       6.20297741
Fe       7.67285000       2.82429000       2.17742000      -2.12886900      -0.76272600      -2.06587500      -2.07080900      -0.82705106      -1.98354725
Fe       6.74071000       1.77406000       4.33655000       0.47479500       0.50025500      -0.42349800       0.07646270       0.44128724      -0.46898242
Fe       7.16362000       1.61896000       6.68131000       5.11373900       1.83737400       0.70818800       4.76412125       1.67270619       0.64011790
Fe       6.73653000       4.13840000       7.84564000       0.19062300       0.32905600       3.59274800       0.12845605       0.49288240       3.63560823
Fe       6.61248000       5.35948000       2.44590000       0.96755600      -0.77403900      -0.47053600       0.84326005      -0.66938113      -0.50087105
Fe       8.39074000       4.95678000       4.82580000       0.50677700       3.21370700       1.22596300       0.60882156       3.11301774       1.09020748
Fe       6.62275000       6.29700000       6.29237000       0.91106900      -0.58785400       1.74696000       0.80559602      -0.47490815       1.60577805
Fe       8.00875000       8.14674000       2.12563000      -1.25903800      -1.94608200      -3.37077000      -0.88206256      -1.94386657      -3.39495465
Fe       7.96861000       8.10559000       4.08816000       1.24434400       0.03207600       4.40361200       0.70324300       0.00988488       4.51334317
B        3.14587000       1.61638000       2.59818000      -3.96044800      -1.57388800      -2.24367700      -3.97178021      -1.49249937      -2.03861672
B        4.07212000       1.93087000       3.78701000       0.55534200       0.12762300      -3.25123200       0.44576075       0.14298343      -3.19171171
B        2.24412000       1.90783000       4.05913000      -1.80380000      -9.70850100      -5.48536600      -1.84626131      -9.93735904      -5.58962448
B        2.90130000       3.06657000       4.45062000       2.48509300       7.60479000      -1.50334300       2.90652746       7.29633180      -1.52795435
B        2.82587000       3.80138000       5.80651000       0.21675600       2.27927400       3.92227300       0.32223387       2.12870758       3.86916876
B        2.60929000       5.04297000       1.66311000       0.12617300      -0.77075900      -0.46531300      -0.06080803      -0.76967424      -0.39815829
B        2.47198000       4.95014000       4.32601000      -0.76752800      -1.31946700       0.35153300      -0.81486544      -1.21185554       0.35071857
B        2.73354000       7.81887000       7.66829000      -1.47869400      -0.15377200       0.00458000      -1.52510705      -0.17303835       0.19237737
B        5.68071000       2.28134000       7.79544000      -0.95924500       0.41857400       1.11780500      -0.93978543       0.34396619       1.05493765
B        7.77536000       3.70665000       3.76574000      -0.44877700      -1.48394500      -0.38974400      -0.55425399      -1.39854098      -0.04274020
Si       0.79518000       0.92195000       5.77957000      -1.66645900      -4.94136200      -1.10925300      -1.62219073      -5.09671173      -0.94760401
Si       0.88055000       4.20706000       6.73551000       1.15626000       3.58432200      -0.32349000       1.10395286       3.76450626      -0.21316129
Si       1.15025000       6.44729000       2.43826000      -7.77651300      -1.83655100      -1.54918700      -7.89911045      -1.72564697      -1.71602710
Si       2.82820000       3.29548000       0.50208000      -4.05499500       1.58525200       5.32597100      -4.12496597       1.46727016       5.26569711
Si       4.14031000       6.38272000       0.30005000      -2.16949800      -2.44928300       2.57761000      -2.22724768      -2.48661608       2.54921333
Si       3.68345000       6.43010000       5.01209000       3.98893100       0.98565200      -2.13453700       3.84667014       1.17590660      -2.07771863
Si       5.73751000       0.59059000       2.53265000       5.08228400      -4.90021500       2.23852200       5.13830088      -4.91123151       2.49430184
Si       4.51163000       2.47994000       5.36819000       2.60737700      -2.86786400       7.12589500       2.76641176      -2.68122622       7.00093100
Si       6.43436000       3.75222000       5.86206000       1.38008400       0.66155200      -3.64612400       1.57228819       0.77895167      -3.75978298
Si       8.06432000       7.52318000       8.55473000       2.36409700      -3.06603600      11.34847700       2.70238541      -2.80282233      11.12033329
18
Lattice="6.5 0.0 0.0 0.0 6.5 0.0 0.0 0.0 6.5" Properties=species:S:1:pos:R:3:REF_forces:R:3:MACE_forces:R:3 config_type=Fe12B3Si3 REF_energy=-113.87843945 MACE_energy=-113.05498683524206 pbc="T T T"
Fe       5.40234000       5.43492000       1.53729000      -1.39532100       2.04028400       0.71142300      -1.09022360       1.92708163       0.69539001
Fe       2.09750000       2.10361000       0.54730000       2.35673700      -0.33103000       1.27254800       2.51392786      -0.07443211       1.15216705
Fe       2.84360000       1.73250000       3.81271000       2.28004000      -1.18251600      -0.27344700       2.18093160      -0.99983113      -0.17620997
Fe       0.77541000       4.93717000       1.04317000       1.56096300      -3.83372900       1.76362000       1.36261533      -3.54649196       1.49886264
Fe       0.07665000       3.70431000       3.74351000      -0.75952900      -0.39175400      -2.23189700      -1.06684916      -0.45258631      -2.28612175
Fe       4.77171000       3.58949000       4.78220000      -1.99219600      -4.62409700       0.48420500      -1.75069572      -4.55613715       0.40818960
Fe       4.12430000       1.49867000       1.46476000       0.29771700      -2.38794700       0.28396300       0.31404900      -2.65128934       0.10482367
Fe       0.95387000       5.17746000       5.28728000      -0.57085000      -0.50160400      -1.80733600      -0.95301205      -0.71037357      -1.30347384
Fe       1.93602000       3.09888000       2.36598000      -0.08855100       0.43128300      -0.27209000      -0.17153339       0.58266822      -0.44132953
Fe       5.69037000       1.28357000       4.20026000      -0.40866000      -0.49067900       0.18976600      -0.72825383      -0.27156315       0.22651871
Fe       1.94321000       2.86141000       5.39871000      -0.55906500       0.73218900      -1.80086600      -0.55740242       0.75618703      -1.88202217
Fe       4.33122000       5.38124000       5.25469000      -0.73272900       4.56545400       1.52017900      -0.65277065       4.36517116       1.53220223
B        0.37598000       1.64060000       1.21420000      -3.21263000       2.85095800       0.76078000      -3.06088060       2.71856239       0.89029018
B        1.88110000       4.04794000       3.96741000       2.48956600       2.45119300      -0.32261600       2.69096866       2.32203615      -0.33475526
B        3.63878000       0.94242000       5.41981000      -0.01444500       0.67937600       0.95779200       0.15813111       0.82868216       1.08784665
Si       1.19380000       0.26963000       0.19686000       0.54051800       0.24528300      -1.93219100       0.67970031      -0.00555131      -1.90864597
Si       4.57825000       3.47658000       1.16117000       0.15934200       1.26766700      -0.81102600       0.19507643       1.44125359      -0.73598456
Si       1.09558000       0.76720000       2.75124000       0.04909300      -1.52033200       1.50719200      -0.06377887      -1.67338630       1.47225231
54
Lattice="8.579999685 0.0 0.0 0.0 8.579999685 0.0 0.0 0.0 8.5799996" Properties=species:S:1:pos:R:3:REF_forces:R:3:MACE_forces:R:3 config_type=Fe34B10Si10 REF_energy=-356.0869274 MACE_energy=-356.9248423141189 pbc="T T T"
Fe       0.92877000       1.08311000       2.12831000      -0.53214900      -1.15432400       0.53007800      -0.68635097      -1.22941167       0.41464999
Fe       1.12794000       0.45096000       7.37327000      -2.86345100       2.18226700       1.45805300      -2.85930409       2.00020708       1.46271641
Fe       0.91289000       3.61082000       1.96264000      -1.66570100       0.50807500      -4.76654600      -1.66163416       0.29884389      -4.77280316
Fe       0.97242000       3.25012000       3.83975000      -0.85629000      -1.23507100      -0.91491200      -1.06848996      -1.19959966      -0.33187853
Fe       1.43574000       3.84332000       5.84621000      -1.94378300      -0.72872400       4.94145300      -2.07037803      -0.54304609       4.67464878
Fe       0.45897000       5.99881000       1.32384000       1.86679900       1.45939200      -0.33976700       1.64628420       1.57923214      -0.16793187
Fe       0.05714000       6.25044000       6.01250000       0.66851500      -0.88142700       1.67028200       0.74281233      -0.75823735       1.77901514
Fe       1.87526000       7.05991000       7.27744000      -5.90957000       6.81146600       5.95768600      -5.76395120       7.20148117       5.94316342
Fe       4.21220000       0.80536000       3.81626000       0.44958900      -1.97725700       0.54591300       0.54939931      -1.90835571       0.44713205
Fe       2.64196000       0.75311000       5.88605000       0.80305000      -0.92688600      -1.50973400       0.58537821      -1.08715063      -1.57527431
Fe       2.51735000       4.27963000       7.86001000      -0.17185400       2.88247300       0.00075600       0.01175919       2.96331583       0.32171919
Fe       2.46175000       4.76211000       4.38544000       2.27245000       6.36429500      -0.60000700       2.21537877       6.33122757      -0.57765333
Fe       3.99132000       4.46692000       6.09268000      -0.21521200      -1.96607600      -0.25853400      -0.21671477      -2.15667601      -0.17176106
Fe       4.03283000       6.20484000       2.50717000       0.32509400      -1.83048700       1.07686200       0.43308878      -1.74243156       1.15524898
Fe       2.62183000       8.12097000       1.25125000      -5.45108600      -1.04608100      -0.88869000      -5.54775069      -1.05605164      -0.57572948
Fe       2.34208000       7.49949000       3.33705000      -1.45221900       0.10179900       1.96325000      -1.25567174       0.21710580       1.58919307
Fe       4.67554000       0.98699000       8.35162000       1.97529500       0.95938300       0.07305200       1.72355282       0.79853154       0.39995918
Fe       4.68615000       2.28426000       1.60336000       6.03713100       4.39249100       1.56082500       6.19609080       4.35041084       1.16492406
Fe       4.95897000       4.28949000       0.91503000       1.24258400       3.77490300      -1.07876200       0.69569970       3.46867551      -1.25101064
Fe       5.62605000       3.84953000       3.25301000      -4.56775200       3.43217100       2.09526400      -4.59978269       3.49928556       1.91759086
Fe       5.63153000       5.70233000       4.67966000       0.04558900       0.36352900      -0.74034800       0.05951164      -0.06350991      -0.59966607
Fe       5.00954000       6.14620000       6.89198000       4.51113600      -2.60361300       1.43664400       4.54666361      -2.40242164       1.38644553
Fe       5.34723000       7.32984000       0.56425000       3.41130600      -7.55812200      -7.44238600       3.34614405      -7.01682029      -7.22947919
Fe       4.57141000       8.20633000       1.67615000      -2.51651100       6.57056000       9.11650700      -2.62160108       6.13938930       8.67671037
Fe       5.67084000       7.83697000       6.02451000      -0.02983000       3.57151200       0.33120700      -0.09565147       3.69102963       0.39837321
Fe       7.65837000       1.05332000       0.64336000       1.95813700       2.93603900      -3.62028800       1.88662718       2.96982537      -3.51135920
Fe       7.23579000       1.49494000       3.62009000       0.88838800      -1.50203300       3.00240400       0.96822171      -1.59111013       3.05729187
Fe       6.96409000       1.59543000       6.70415000       0.40175100      -2.57633900      -0.54943900       0.52569950      -2.53307244      -0.51932892
Fe       6.97946000       3.05325000       2.27831000       3.01329100      -2.85779700      -7.80747400       2.46804466      -2.96118478      -7.22236632
Fe       7.05854000       3.62734000       7.13255000       0.94483300       2.42104600       2.56329500       1.03433189       2.45017973       2.48748337
Fe       7.47490000       4.49325000       0.92243000      -3.13561000       0.06366500       0.11142200      -2.92204089       0.42607201      -0.31757687
Fe       7.76499000       5.40883000       4.05655000       3.42051700      -2.49950500       1.10150300       3.50364443      -2.67117414       1.13797402
Fe       6.91686000       6.16423000       2.38917000      -4.34160700       0.52717700      -3.24358900      -4.30772323       0.63892844      -3.18113413
Fe       7.31773000       7.39473000       4.73130000      -1.41907300       3.06948200       1.38572900      -1.42107718       3.07340297       1.33576321
B        1.63947000       5.44017000       2.85377000      -1.37965300       1.67099600      -0.34434500      -1.46744613       1.77385289      -0.61586013
B        3.47444000       1.29905000       1.69513000      -6.04542900      -7.46227000      -1.52467000      -5.89796946      -7.25185669      -1.18221121
B        2.31673000       1.42955000       3.77944000      -1.85652800      -2.14982900       3.21956500      -1.75748971      -1.97918189       3.48349146
B        3.17088000       0.01260000       8.16689000      -2.14308300      -0.12737100      -3.63430700      -2.05305120       0.09643544      -3.59213577
B        2.48887000       2.23189000       2.44876000      -1.30373000       3.96631200      -0.94871100      -0.88453315       3.88191052      -1.26638023
B        3.55016000       3.21990000       0.17024000       2.13469500      -3.52588700       0.23974700       2.15912116      -3.43410405       0.23692721
B        3.12966000       3.07291000       4.24572000      -6.99085300       0.34377600      -0.16579100      -7.16755861       0.08960468      -0.28947471
B        2.38358000       5.95301000       6.34325000       2.25901800      -8.76611800      -6.31465800       2.23924463      -9.20899358      -6.55255283
B        4.46260000       2.62992000       4.23823000       7.08507900      -1.75449200       0.40993300       7.22797242      -1.75643876       0.46249089
B        7.51183000       3.59374000       3.85724000       1.49621300      -1.20378300       3.39561400       1.51493126      -1.10604391       3.28647718
Si       0.50050000       1.66927000       5.10425000      -1.02554400      -2.67263500       2.61432900      -0.83647178      -2.92480703       2.53234836
Si       0.41923000       4.50138000       8.15701000       0.82744200      -0.47721100      -2.57541600       1.06109535      -0.46434535      -2.80365226
Si       2.90131000       4.25049000       1.93860000       2.71957100       0.04497600      -0.88170100       2.92677699      -0.04755932      -1.11314127
Si       3.74353000       6.85388000       5.19884000      -1.20766000       1.80214700      -2.20114300      -1.08681220       1.98234754      -2.18799459
Si       3.54209000       6.47938000       8.21357000      -0.45014500      -1.75854100       4.24377300      -0.56094532      -2.00790675       4.44054078
Si       4.55252000       1.74669000       6.40118000       0.28733400       0.20348600      -1.69136000       0.28345621       0.18233104      -1.69991174
Si       5.87020000       3.30923000       5.41310000       1.93974000       0.55942400      -1.14043100       1.57389905       0.72696714      -1.13936955
Si       6.68392000       0.09389000       2.07850000      -2.78148600      -1.30329400       2.70552900      -2.47467199      -1.21885032       2.83696409
Si       7.30980000       7.36953000       0.08595000       4.18267400      -0.22507900      -1.67891000       4.12555144      -0.51023758      -1.68102393
Si       8.41387000       7.50606000       2.97540000       5.08859000       1.78741200      -0.88875800       5.03469040       1.99998522      -0.90058139
54
Lattice="8.579999685 0.0 0.0 0.0 8.579999685 0.0 0.0 0.0 8.5799996" Properties=species:S:1:pos:R:3:REF_forces:R:3:MACE_forces:R:3 config_type=Fe34B10Si10 REF_energy=-359.84864784 MACE_energy=-360.32655911143615 pbc="T T T"
Fe       0.39531000       2.37288000       0.87042000       3.27925500       2.43832800      -1.60261100       3.21057632       2.63738338      -1.76195093
Fe       0.75383000       1.65209000       3.11094000       1.30783500      -0.34615400      -0.09267000       1.27286718      -0.80176965       0.19951817
Fe       1.33201000       3.79282000       7.26231000      -2.40668100      -1.18131200       0.32245500      -2.51915101      -1.05989601       0.20230762
Fe       0.64436000       4.41396000       2.97573000       2.42004200      -2.26182600       0.38963900       2.47578573      -2.07032190       0.22894412
Fe       0.14751000       6.42079000       3.51005000      -3.07002100       1.32407200      -2.30638400      -3.11580895       1.36772428      -2.50849226