54
Lattice="8.579999685 0.0 0.0 0.0 8.579999685 0.0 0.0 0.0 8.5799996" Properties=species:S:1:pos:R:3:REF_forces:R:3:MACE_forces:R:3 config_type=Fe34B10Si10 REF_energy=-352.89092233 MACE_energy=-353.3461187946863 pbc="T T T"
Fe       1.46495000       0.71583000       1.12880000       3.73230100      -3.41607500      -3.76209700       3.68927845      -3.48537253      -3.54416361
Fe       0.56244000       2.07917000       1.96452000      -3.31290700       4.06628900       2.54508600      -3.23405499       3.95506877       2.33227584
Fe       0.86636000       2.12990000       5.00906000     -10.85567700      -2.87102900      12.20968700     -10.93044929      -2.95935395      12.20995355
Fe       0.24697000       2.61233000       7.83061000      -0.37811800      -2.03816900      -0.08744800      -0.41701770      -1.90107125       0.07841712
Fe       0.35437000       4.66395000       8.16447000      -1.30300600       1.62250000       0.84662400      -1.32863801       1.61796418       0.77864796
Fe       0.83543000       8.00840000       3.01492000       5.54921000      -2.55787300       0.52513800       5.70741890      -2.53397621       0.39654222
Fe       2.03952000       7.84431000       6.63062000      -4.28706100       1.82495200      -1.68802900      -4.07892730       1.96953296      -1.62988770
Fe       3.34318000       0.11090000       2.96052000      -0.46571400      -0.35056300       0.37864800      -0.50896883      -0.22329707       0.47576656
Fe       3.26317000       2.11539000       1.48699000      -3.47884800      -0.03222100       0.61542300      -3.41287092      -0.30611096       0.16420342
Fe       4.14313000       2.75755000       3.31065000      -0.71378000      -2.73118300       1.93004800      -0.61850255      -2.42288413       1.87260404
Fe       2.55051000       2.67374000       7.19710000      -2.55215900      -0.93589000       1.77261600      -2.30397657      -1.13590857       1.72286751
Fe       3.61327000       2.86500000       5.46497000       1.55763200       0.20514300      -0.56676300       1.47455025       0.28564558      -0.29048071
Fe       2.62400000       4.72550000       1.39174000      -1.08585200      -1.19598700       0.59645400      -1.35117026      -0.99940556       0.69395794
Fe       2.20317000       5.21693000       3.87451000      -3.92870900      -4.38103900      -4.92199500      -3.85516808      -4.36474608      -4.95958650
Fe       3.93082000       4.37819000       8.08226000       1.07616800       0.44807800      -0.99700400       1.01746314       0.30291861      -0.93093902
Fe       2.44961000       7.01753000       1.08943000       0.32119000      -1.55635000       3.27006500       0.43640209      -1.62219129       3.26539373
Fe       3.02500000       6.15780000       5.08193000      -1.08486800       1.64126100       3.95415400      -0.63213828       1.62515368       4.02705941
Fe       5.77712000       0.44616000       0.16142000      -2.43333700       0.07175000       4.13474700      -2.47587997       0.41271156       4.22373436
Fe       5.66964000       0.14892000       2.95259000      -3.67617900       1.90971100       0.12919700      -3.67259319       1.65416174       0.32436016
Fe       5.39484000       2.66317000       1.55162000       4.08183700      -3.39937100       3.88213200       4.04273748      -3.65351296       4.04264785
Fe       5.91309000       3.40423000       8.31953000       8.90196200       5.48305700      -2.72562400       8.70873755       5.44419491      -2.70698300
Fe       4.96126000       4.63305000       3.41410000      -3.60269200      -2.00302700       2.25051900      -3.72945774      -2.21943159       2.39301624
Fe       5.11347000       6.81217000       1.78872000      -0.87770500       0.06714300      -1.61156800      -0.70463418       0.07061539      -1.57810753
Fe       5.00950000       6.45991000       8.24507000      -2.30619500      -0.19808200      -1.52355700      -2.29395709       0.00928889      -1.67515472
Fe       4.64263000       7.71190000       5.75084000       2.50156800       4.23919200      -1.55456800       2.60499894       4.28633001      -1.59338904
Fe       7.32285000       0.33022000       5.03535000      -0.99210900      -0.59745100       4.73628300      -1.02640119      -0.37787403       4.80647013
Fe       6.75330000       1.32958000       7.05071000       0.53851300       2.01290400       0.36400700       0.55682152       1.82629270       0.29577393
Fe       6.82686000       2.53028000       3.66692000      -0.08907100      -0.12987400      -0.26318300      -0.05668394      -0.20618534      -0.25051752
Fe       6.83617000       5.56618000       0.59386000       1.74434500       1.47371700      -3.32847200       1.81737517       1.63826809      -3.42623884
Fe       8.27091000       4.29855000       2.87718000       3.23308900       0.33980500       1.37352500       3.20378477       0.21654918       1.31930961
Fe       6.58774000       4.90718000       4.97515000      -1.87594500       0.58060600      -0.05143700      -2.12211832       0.62851917      -0.30467497
Fe       6.86773000       6.79187000       3.27473000       1.52763600      -2.76254700       0.67579100       1.39690513      -2.42305542       0.38812673
Fe       8.09083000       8.29691000       0.84396000      -4.18921500      -1.95965200       9.56442300      -4.18281452      -2.32981635       9.68031966
Fe       6.62133000       7.67903000       7.47205000      -3.65417600       1.51975600      -3.32990400      -3.89731083       1.22386485      -3.52032915
B        3.45077000       6.81738000       6.75435000       2.04131500      -2.79808300       3.80923700       1.91453376      -2.71213231       3.94869319
B        4.67436000       1.10514000       4.73414000       0.75036200       0.95391600      -0.52852700       0.82928239       0.87818206      -0.46781893
B        6.18153000       2.20088000       5.47737000      -4.49435700      -3.20609500      -2.27763700      -4.71590135      -3.14903949      -2.48115123
B        5.08133000       4.10197000       6.35983000       0.35152900       0.25548900      -0.65354500       0.57592932       0.32927791      -0.62263190
B        4.48663000       4.29393000       1.40792000      -0.27448100       1.04603100       0.21283300      -0.26693819       1.22036512       0.15263191
B        4.96286000       5.88068000       6.14703000       0.60492000      -1.85032800       0.29314600       0.62259963      -1.92849675       0.12643659
B        8.17242000       5.65216000       5.55863000       1.00443800       0.65677900      -0.69824300       1.02701926       0.72628156      -0.33143587
B        7.98743000       6.92663000       6.60530000       5.86774900       2.58695800      -4.05103700       5.84336457       2.47856044      -3.73285513
B        7.10769000       5.72812000       6.91109000      -2.33709700      -3.34606800       1.34633400      -2.31973613      -3.50006374       1.30373678
B        7.81665000       6.81498000       8.33858000       5.04350100      -2.41043400       0.97359300       5.16680374      -2.41482265       0.74705343
Si       0.06983000       0.14925000       7.74742000       4.12649000       2.60901100      -8.87608100       3.96229917       2.64843948      -8.87252856
Si       1.93337000       2.41223000       3.74634000      10.14534600       2.98113100     -12.18526000      10.22921256       3.10685248     -12.01287687
Si       0.75978000       6.02813000       1.69309000      -4.13401100      -0.74920300       1.02787300      -4.12797800      -0.86810110       1.02610655
Si       2.22023000       5.10313000       7.16329000      -1.58663400       1.19675500      -1.89967800      -1.78355577       1.15348899      -1.93085557
Si       3.27754000       8.17117000       8.35443000       4.04667900       4.58101600      -2.24829100       3.90847215       4.54662634      -2.46101130
Si       4.48145000       2.18337000       8.34202000      -5.72220500      -5.96162700      -4.99603400      -5.48773093      -5.82327458      -5.15257010
Si       6.36439000       4.54151000       2.12641000       2.28764700      -2.33178900       1.39384200       2.59033544      -2.23643116       1.27583337
Si       4.52267000       6.51460000       3.75633000       0.42177200       5.22743800       1.25328700       0.14635156       5.37117901       1.39327654
Si       7.68278000       0.22257000       3.11016000      -0.17295300       4.89916800      -3.86478000      -0.29899801       4.78149404      -3.98103994
Si       7.35363000       3.38410000       6.13231000       4.40786200       1.27045000       2.62604800       4.36189518       1.38872740       2.99201136
54
Lattice="8.579999685 0.0 0.0 0.0 8.579999685 0.0 0.0 0.0 8.5799996" Properties=species:S:1:pos:R:3:REF_forces:R:3:MACE_forces:R:3 config_type=Fe34B10Si10 REF_energy=-354.71875992 MACE_energy=-355.41690174772737 pbc="T T T"
Fe       0.43313000       1.19321000       2.96848000       1.47291300       2.99028000       0.61180900       1.62409173       2.98202854       0.32551246
Fe       0.91365000       1.12516000       8.09995000       2.76260400      -2.00335600       1.20968300       2.55799557      -2.12650877       1.10535407
Fe       1.17142000       2.67870000       5.23446000      -1.90323000       6.04651700       0.58026800      -1.70063259       6.28842105       0.61938113
Fe       0.60772000       3.85484000       0.87278000       2.66909500       4.89444800       4.53699300       2.64839150       5.11299947       4.23929416
Fe       1.41565000       3.44858000       3.01161000      -0.29549500       2.03729500      -0.74017400      -0.26879496       1.93422988      -0.67528887
Fe       0.04226000       2.91249000       8.09734000      -3.39897200      -2.84207300      -2.69442200      -3.06507509      -2.75294157      -2.46689954
Fe       1.33282000       7.09057000       5.22634000      -0.45239700      -1.35392500       0.92503500      -0.22542050      -1.49992082       0.81833758
Fe       2.06045000       7.92051000       0.98063000      -3.11321000      -0.30108300      -2.49280600      -3.23290269      -0.53237487      -2.33364524
Fe       2.03627000       8.24295000       3.50701000      -1.42216600       4.38122900       0.88517600      -1.54817095       4.19832541       0.56242643
Fe       0.01253000       8.02686000       7.00667000       2.58679700       0.98610200     -11.80201700       2.51165451       0.82548191     -11.91093094
Fe       3.00353000       0.57289000       6.13981000      -1.03922300       0.18357300       0.93137300      -0.71926520      -0.01719616       1.08553160
Fe       3.69949000       2.65196000       7.51811000       2.76433000      -4.34399200      -3.80269000       2.57241833      -4.15374666      -3.66049276
Fe       2.94478000       6.44154000       3.03987000       7.21319500      -3.66655800      -1.17614100       7.13571593      -3.40449573      -0.94400359
Fe       2.94309000       5.75189000       6.64956000      -6.24071800      -0.74678300       3.86021800      -6.57662366      -0.75203104       3.89436398
Fe       3.71160000       8.39321000       1.86324000       2.24845700      -0.43546600       0.28887200       2.36813716      -0.26008285       0.52956312
Fe       4.07810000       8.43915000       4.32840000       2.88035800       1.28304800      -0.49181300       2.93876760       1.47633090      -0.80113680
Fe       5.57499000       0.73262000       6.31633000      -3.12774100      -1.68249800      -0.98058200      -2.95642704      -1.72782772      -1.03429321
Fe       4.70712000       1.94493000       1.65492000      -2.04675700       4.97917500      -3.67899600      -2.13492217       4.84547081      -3.40829314
Fe       4.73401000       4.18392000       1.24748000       0.71501700       1.80608500      -0.06999200       0.70228165       1.99324350      -0.14635441
Fe       4.56687000       4.22266000       4.39618000       0.73801700       3.32591500      -2.10569900       0.59457547       3.48913774      -2.30108213
Fe       4.51224000       4.61167000       7.05684000       2.53211900      -0.41024200       0.53825400       2.98810621      -0.68471579       0.64156910
Fe       6.32808000       6.81945000       4.24288000      -3.20445400      -0.33519400      -1.28892300      -2.85133834      -0.28705089      -1.07819078
Fe       6.22240000       7.17309000       0.16230000      -3.30904600      -2.75215800       1.90373500      -3.53764566      -2.98377719       1.94579901
Fe       4.54224000       7.44382000       7.03838000       0.17895600      -5.02037800      -8.74618400       0.15087741      -5.32332332      -8.84968067
Fe       4.73272000       8.55832000       8.35561000      -0.10588400       8.96287400       6.54083400      -0.25019323       9.44043372       6.37263205
Fe       7.67285000       2.82429000       2.17742000      -2.12886900      -0.76272600      -2.06587500      -2.12358919      -0.70697285      -1.91608327
Fe       6.74071000       1.77406000       4.33655000       0.47479500       0.50025500      -0.42349800       0.12685482       0.52080861      -0.54698234
Fe       7.16362000       1.61896000       6.68131000       5.11373900       1.83737400       0.70818800       4.92787953       1.65379863       0.63892321
Fe       6.73653000       4.13840000       7.84564000       0.19062300       0.32905600       3.59274800       0.35373127       0.46274484       3.68185854
Fe       6.61248000       5.35948000       2.44590000       0.96755600      -0.77403900      -0.47053600       0.90270884      -0.75918887      -0.39907500
Fe       8.39074000       4.95678000       4.82580000       0.50677700       3.21370700       1.22596300       0.55922577       3.14006876       1.07815603
Fe       6.62275000       6.29700000       6.29237000       0.91106900      -0.58785400       1.74696000       0.85065384      -0.46746589       1.52290496
Fe       8.00875000       8.14674000       2.12563000      -1.25903800      -1.94608200      -3.37077000      -0.86728630      -1.95915126      -3.53614192
Fe       7.96861000       8.10559000       4.08816000       1.24434400       0.03207600       4.40361200       0.66937604      -0.04035016       4.63068713
B        3.14587000       1.61638000       2.59818000      -3.96044800      -1.57388800      -2.24367700      -4.10367350      -1.54490804      -2.21464968
B        4.07212000       1.93087000       3.78701000       0.55534200       0.12762300      -3.25123200       0.40228725      -0.02923239      -3.35686500
B        2.24412000       1.90783000       4.05913000      -1.80380000      -9.70850100      -5.48536600      -1.85486093      -9.89561766      -5.58271879
B        2.90130000       3.06657000       4.45062000       2.48509300       7.60479000      -1.50334300       2.78701740       7.12153468      -1.39300405
B        2.82587000       3.80138000       5.80651000       0.21675600       2.27927400       3.92227300       0.26046465       2.13280991       3.95588619
B        2.60929000       5.04297000       1.66311000       0.12617300      -0.77075900      -0.46531300      -0.03059082      -0.95272055      -0.47114552
B        2.47198000       4.95014000       4.32601000      -0.76752800      -1.31946700       0.35153300      -0.91312203      -1.14281577       0.35258620
B        2.73354000       7.81887000       7.66829000      -1.47869400      -0.15377200       0.00458000      -1.42477735      -0.13304189       0.09565366
B        5.68071000       2.28134000       7.79544000      -0.95924500       0.41857400       1.11780500      -1.05487044       0.37380231       1.11549131
B        7.77536000       3.70665000       3.76574000      -0.44877700      -1.48394500      -0.38974400      -0.48553445      -1.38706345      -0.18430761
Si       0.79518000       0.92195000       5.77957000      -1.66645900      -4.94136200      -1.10925300      -1.64995514      -5.07181988      -0.92499971
Si       0.88055000       4.20706000       6.73551000       1.15626000       3.58432200      -0.32349000       1.14152788       3.69491037      -0.29753535
Si       1.15025000       6.44729000       2.43826000      -7.77651300      -1.83655100      -1.54918700      -7.84234102      -1.67403370      -1.75149132
Si       2.82820000       3.29548000       0.50208000      -4.05499500       1.58525200       5.32597100      -4.12691158       1.39346359       5.18871262
Si       4.14031000       6.38272000       0.30005000      -2.16949800      -2.44928300       2.57761000      -2.31017036      -2.36472755       2.44617539
Si       3.68345000       6.43010000       5.01209000       3.98893100       0.98565200      -2.13453700       3.92579101       1.20736610      -2.04132467
Si       5.73751000       0.59059000       2.53265000       5.08228400      -4.90021500       2.23852200       5.18973899      -4.99017425       2.52611045
Si       4.51163000       2.47994000       5.36819000       2.60737700      -2.86786400       7.12589500       2.74609168      -2.59590499       7.29448539
Si       6.43436000       3.75222000       5.86206000       1.38008400       0.66155200      -3.64612400       1.50686896       0.67564634      -3.78244961
Si       8.06432000       7.52318000       8.55473000       2.36409700      -3.06603600      11.34847700       2.71186414      -2.74187449      11.34167015
18
Lattice="6.5 0.0 0.0 0.0 6.5 0.0 0.0 0.0 6.5" Properties=species:S:1:pos:R:3:REF_forces:R:3:MACE_forces:R:3 config_type=Fe12B3Si3 REF_energy=-113.87843945 MACE_energy=-112.41844409078732 pbc="T T T"
Fe       5.40234000       5.43492000       1.53729000      -1.39532100       2.04028400       0.71142300      -1.17457634       2.05286751       0.79270261
Fe       2.09750000       2.10361000       0.54730000       2.35673700      -0.33103000       1.27254800       2.69115072      -0.25191236       1.39811875
Fe       2.84360000       1.73250000       3.81271000       2.28004000      -1.18251600      -0.27344700       2.25020723      -1.06509066      -0.33411556
Fe       0.77541000       4.93717000       1.04317000       1.56096300      -3.83372900       1.76362000       1.54419665      -3.65602477       1.57607575
Fe       0.07665000       3.70431000       3.74351000      -0.75952900      -0.39175400      -2.23189700      -0.89451426      -0.47504778      -2.34737076
Fe       4.77171000       3.58949000       4.78220000      -1.99219600      -4.62409700       0.48420500      -1.79379923      -4.53677586       0.43766920
Fe       4.12430000       1.49867000       1.46476000       0.29771700      -2.38794700       0.28396300       0.34610553      -2.68950959       0.15806391
Fe       0.95387000       5.17746000       5.28728000      -0.57085000      -0.50160400      -1.80733600      -0.83814612      -0.69208076      -1.37533957
Fe       1.93602000       3.09888000       2.36598000      -0.08855100       0.43128300      -0.27209000      -0.23166075       0.56409457      -0.37724755
Fe       5.69037000       1.28357000       4.20026000      -0.40866000      -0.49067900       0.18976600      -0.70689394      -0.35934517       0.24857043
Fe       1.94321000       2.86141000       5.39871000      -0.55906500       0.73218900      -1.80086600      -0.66654891       1.09001100      -2.19219709
Fe       4.33122000       5.38124000       5.25469000      -0.73272900       4.56545400       1.52017900      -0.63125128       4.47343321       1.59144312
B        0.37598000       1.64060000       1.21420000      -3.21263000       2.85095800       0.76078000      -3.17217269       2.76711351       1.02051584
B        1.88110000       4.04794000       3.96741000       2.48956600       2.45119300      -0.32261600       2.52898444       2.27779432      -0.30062977
B        3.63878000       0.94242000       5.41981000      -0.01444500       0.67937600       0.95779200       0.04189622       0.77554262       1.07888397
Si       1.19380000       0.26963000       0.19686000       0.54051800       0.24528300      -1.93219100       0.61454584       0.00286123      -1.88872284
Si       4.57825000       3.47658000       1.16117000       0.15934200       1.26766700      -0.81102600       0.20795418       1.35951991      -0.75787647
Si       1.09558000       0.76720000       2.75124000       0.04909300      -1.52033200       1.50719200      -0.11547729      -1.63745092       1.27145606
54
Lattice="8.579999685 0.0 0.0 0.0 8.579999685 0.0 0.0 0.0 8.5799996" Properties=species:S:1:pos:R:3:REF_forces:R:3:MACE_forces:R:3 config_type=Fe34B10Si10 REF_energy=-356.0869274 MACE_energy=-357.1610414715931 pbc="T T T"
Fe       0.92877000       1.08311000       2.12831000      -0.53214900      -1.15432400       0.53007800      -0.63209733      -1.16565289       0.45838940
Fe       1.12794000       0.45096000       7.37327000      -2.86345100       2.18226700       1.45805300      -2.72466042       2.05190209       1.41513997
Fe       0.91289000       3.61082000       1.96264000      -1.66570100       0.50807500      -4.76654600      -1.57499171       0.13675707      -4.50310791
Fe       0.97242000       3.25012000       3.83975000      -0.85629000      -1.23507100      -0.91491200      -1.12360283      -1.06556277      -0.61463512
Fe       1.43574000       3.84332000       5.84621000      -1.94378300      -0.72872400       4.94145300      -2.05904635      -0.53821383       4.74702484
Fe       0.45897000       5.99881000       1.32384000       1.86679900       1.45939200      -0.33976700       1.68009357       1.46474391      -0.15848509
Fe       0.05714000       6.25044000       6.01250000       0.66851500      -0.88142700       1.67028200       0.61764365      -0.74827065       1.70875514
Fe       1.87526000       7.05991000       7.27744000      -5.90957000       6.81146600       5.95768600      -5.63563100       6.97857867       5.78194396
Fe       4.21220000       0.80536000       3.81626000       0.44958900      -1.97725700       0.54591300       0.53705048      -1.81297708       0.46294659
Fe       2.64196000       0.75311000       5.88605000       0.80305000      -0.92688600      -1.50973400       0.50158296      -1.08761512      -1.49799059
Fe       2.51735000       4.27963000       7.86001000      -0.17185400       2.88247300       0.00075600      -0.17977582       3.05922475       0.06119970
Fe       2.46175000       4.76211000       4.38544000       2.27245000       6.36429500      -0.60000700       2.31592856       6.37172221      -0.49953952
Fe       3.99132000       4.46692000       6.09268000      -0.21521200      -1.96607600      -0.25853400      -0.31647334      -2.19791109      -0.15131429
Fe       4.03283000       6.20484000       2.50717000       0.32509400      -1.83048700       1.07686200       0.37826905      -1.76931688       1.10084912
Fe       2.62183000       8.12097000       1.25125000      -5.45108600      -1.04608100      -0.88869000      -5.58139339      -1.10137550      -0.67239328
Fe       2.34208000       7.49949000       3.33705000      -1.45221900       0.10179900       1.96325000      -1.29782862       0.10772816       1.58950444
Fe       4.67554000       0.98699000       8.35162000       1.97529500       0.95938300       0.07305200       1.72248120       0.86853824       0.31726509
Fe       4.68615000       2.28426000       1.60336000       6.03713100       4.39249100       1.56082500       6.17687081       4.36357837       1.12728573
Fe       4.95897000       4.28949000       0.91503000       1.24258400       3.77490300      -1.07876200       0.79629384       3.56467512      -1.17795971
Fe       5.62605000       3.84953000       3.25301000      -4.56775200       3.43217100       2.09526400      -4.70604722       3.44518190       1.92010020
Fe       5.63153000       5.70233000       4.67966000       0.04558900       0.36352900      -0.74034800       0.10873175      -0.04405841      -0.58610640
Fe       5.00954000       6.14620000       6.89198000       4.51113600      -2.60361300       1.43664400       4.56495545      -2.54659771       1.29517153
Fe       5.34723000       7.32984000       0.56425000       3.41130600      -7.55812200      -7.44238600       3.24187780      -7.13421893      -7.11497510
Fe       4.57141000       8.20633000       1.67615000      -2.51651100       6.57056000       9.11650700      -2.35525031       6.15098173       8.82072546
Fe       5.67084000       7.83697000       6.02451000      -0.02983000       3.57151200       0.33120700      -0.05343713       3.67325032       0.45605715
Fe       7.65837000       1.05332000       0.64336000       1.95813700       2.93603900      -3.62028800       1.80268298       2.80385488      -3.41724214
Fe       7.23579000       1.49494000       3.62009000       0.88838800      -1.50203300       3.00240400       1.06743327      -1.49954297       3.00030630
Fe       6.96409000       1.59543000       6.70415000       0.40175100      -2.57633900      -0.54943900       0.43798949      -2.39615419      -0.47914208
Fe       6.97946000       3.05325000       2.27831000       3.01329100      -2.85779700      -7.80747400       2.64667434      -2.87622073      -7.40500523
Fe       7.05854000       3.62734000       7.13255000       0.94483300       2.42104600       2.56329500       0.99629445       2.28671469       2.35610102
Fe       7.47490000       4.49325000       0.92243000      -3.13561000       0.06366500       0.11142200      -2.80747948       0.40357858      -0.13003392
Fe       7.76499000       5.40883000       4.05655000       3.42051700      -2.49950500       1.10150300       3.60995953      -2.66927094       1.13217387
Fe       6.91686000       6.16423000       2.38917000      -4.34160700       0.52717700      -3.24358900      -4.37125023       0.85407728      -3.25209294
Fe       7.31773000       7.39473000       4.73130000      -1.41907300       3.06948200       1.38572900      -1.45237689       2.98337124       1.32625753
B        1.63947000       5.44017000       2.85377000      -1.37965300       1.67099600      -0.34434500      -1.43455939       1.75510838      -0.54996466
B        3.47444000       1.29905000       1.69513000      -6.04542900      -7.46227000      -1.52467000      -6.12358458      -6.98384267      -1.29521224
B        2.31673000       1.42955000       3.77944000      -1.85652800      -2.14982900       3.21956500      -1.82894641      -1.95510477       3.30902250
B        3.17088000       0.01260000       8.16689000      -2.14308300      -0.12737100      -3.63430700      -2.09652208       0.13694969      -3.47196303
B        2.48887000       2.23189000       2.44876000      -1.30373000       3.96631200      -0.94871100      -0.89804851       3.69574007      -1.24427025
B        3.55016000       3.21990000       0.17024000       2.13469500      -3.52588700       0.23974700       2.14461000      -3.58369350       0.38235406
B        3.12966000       3.07291000       4.24572000      -6.99085300       0.34377600      -0.16579100      -6.84491705       0.10135573      -0.17543312
B        2.38358000       5.95301000       6.34325000       2.25901800      -8.76611800      -6.31465800       2.11609986      -9.04756847      -6.41428836
B        4.46260000       2.62992000       4.23823000       7.08507900      -1.75449200       0.40993300       6.96525422      -1.82890405       0.34632585
B        7.51183000       3.59374000       3.85724000       1.49621300      -1.20378300       3.39561400       1.49735012      -1.01485090       3.22473729
Si       0.50050000       1.66927000       5.10425000      -1.02554400      -2.67263500       2.61432900      -0.78517610      -2.98090431       2.56747698
Si       0.41923000       4.50138000       8.15701000       0.82744200      -0.47721100      -2.57541600       1.09466014      -0.43904178      -2.75097048
Si       2.90131000       4.25049000       1.93860000       2.71957100       0.04497600      -0.88170100       2.69697444       0.00211435      -1.02749128
Si       3.74353000       6.85388000       5.19884000      -1.20766000       1.80214700      -2.20114300      -1.07595976       1.93496532      -2.08075386
Si       3.54209000       6.47938000       8.21357000      -0.45014500      -1.75854100       4.24377300      -0.57444767      -2.02034660       4.41704702
Si       4.55252000       1.74669000       6.40118000       0.28733400       0.20348600      -1.69136000       0.28004435       0.21788573      -1.64300631
Si       5.87020000       3.30923000       5.41310000       1.93974000       0.55942400      -1.14043100       1.67864809       0.82954841      -1.22666496
Si       6.68392000       0.09389000       2.07850000      -2.78148600      -1.30329400       2.70552900      -2.55758338      -1.24095286       2.85692090
Si       7.30980000       7.36953000       0.08595000       4.18267400      -0.22507900      -1.67891000       4.39612451      -0.38405572      -1.74351596
Si       8.41387000       7.50606000       2.97540000       5.08859000       1.78741200      -0.88875800       5.01850810       1.89009841      -0.89752384
54
Lattice="8.579999685 0.0 0.0 0.0 8.579999685 0.0 0.0 0.0 8.5799996" Properties=species:S:1:pos:R:3:REF_forces:R:3:MACE_forces:R:3 config_type=Fe34B10Si10 REF_energy=-359.84864784 MACE_energy=-360.53242695426906 pbc="T T T"
Fe       0.39531000       2.37288000       0.87042000       3.27925500       2.43832800      -1.60261100       3.16653865       2.63259969      -1.71214731
Fe       0.75383000       1.65209000       3.11094000       1.30783500      -0.34615400      -0.09267000       1.36261426      -0.71436712       0.04910237
Fe       1.33201000       3.79282000       7.26231000      -2.40668100      -1.18131200       0.32245500      -2.52855780      -1.18622696       0.18946748
Fe       0.64436000       4.41396000       2.97573000       2.42004200      -2.26182600       0.38963900       2.46264452      -2.06470828       0.21813700
Fe       0.14751000       6.42079000       3.51005000      -3.07002100       1.32407200      -2.30638400      -3.16971036       1.34104331      -2.49145722