54
Lattice="8.579999685 0.0 0.0 0.0 8.579999685 0.0 0.0 0.0 8.5799996" Properties=species:S:1:pos:R:3:REF_forces:R:3:MACE_forces:R:3 config_type=Fe34B10Si10 REF_energy=-352.89092233 MACE_energy=-353.3062197425868 pbc="T T T"
Fe       1.46495000       0.71583000       1.12880000       3.73230100      -3.41607500      -3.76209700       3.68811204      -3.53241075      -3.54678535
Fe       0.56244000       2.07917000       1.96452000      -3.31290700       4.06628900       2.54508600      -3.21953253       3.97530863       2.35225847
Fe       0.86636000       2.12990000       5.00906000     -10.85567700      -2.87102900      12.20968700     -10.94858402      -2.95292429      12.22010576
Fe       0.24697000       2.61233000       7.83061000      -0.37811800      -2.03816900      -0.08744800      -0.42304818      -1.91268434       0.08953972
Fe       0.35437000       4.66395000       8.16447000      -1.30300600       1.62250000       0.84662400      -1.33009821       1.60989618       0.77138858
Fe       0.83543000       8.00840000       3.01492000       5.54921000      -2.55787300       0.52513800       5.70719923      -2.53122054       0.38117982
Fe       2.03952000       7.84431000       6.63062000      -4.28706100       1.82495200      -1.68802900      -4.07171653       1.96184712      -1.64765370
Fe       3.34318000       0.11090000       2.96052000      -0.46571400      -0.35056300       0.37864800      -0.52864258      -0.22065197       0.47432292
Fe       3.26317000       2.11539000       1.48699000      -3.47884800      -0.03222100       0.61542300      -3.42444972      -0.30123584       0.16802876
Fe       4.14313000       2.75755000       3.31065000      -0.71378000      -2.73118300       1.93004800      -0.61366909      -2.39413250       1.84974814
Fe       2.55051000       2.67374000       7.19710000      -2.55215900      -0.93589000       1.77261600      -2.30040469      -1.14867039       1.71449312
Fe       3.61327000       2.86500000       5.46497000       1.55763200       0.20514300      -0.56676300       1.46124878       0.27135646      -0.27424086
Fe       2.62400000       4.72550000       1.39174000      -1.08585200      -1.19598700       0.59645400      -1.35092793      -1.01692791       0.70020883
Fe       2.20317000       5.21693000       3.87451000      -3.92870900      -4.38103900      -4.92199500      -3.85973455      -4.40878652      -4.98436413
Fe       3.93082000       4.37819000       8.08226000       1.07616800       0.44807800      -0.99700400       1.03506729       0.30013650      -0.91311324
Fe       2.44961000       7.01753000       1.08943000       0.32119000      -1.55635000       3.27006500       0.44993786      -1.64351917       3.25983443
Fe       3.02500000       6.15780000       5.08193000      -1.08486800       1.64126100       3.95415400      -0.64243061       1.65522659       4.05432371
Fe       5.77712000       0.44616000       0.16142000      -2.43333700       0.07175000       4.13474700      -2.47052974       0.40528235       4.21909431
Fe       5.66964000       0.14892000       2.95259000      -3.67617900       1.90971100       0.12919700      -3.63604609       1.65303085       0.31421473
Fe       5.39484000       2.66317000       1.55162000       4.08183700      -3.39937100       3.88213200       4.01979662      -3.63911015       4.02663516
Fe       5.91309000       3.40423000       8.31953000       8.90196200       5.48305700      -2.72562400       8.73455180       5.47559137      -2.72354032
Fe       4.96126000       4.63305000       3.41410000      -3.60269200      -2.00302700       2.25051900      -3.72886273      -2.22259124       2.36927015
Fe       5.11347000       6.81217000       1.78872000      -0.87770500       0.06714300      -1.61156800      -0.70411837       0.07327108      -1.56253078
Fe       5.00950000       6.45991000       8.24507000      -2.30619500      -0.19808200      -1.52355700      -2.26965353       0.02364422      -1.66744612
Fe       4.64263000       7.71190000       5.75084000       2.50156800       4.23919200      -1.55456800       2.61633384       4.25084654      -1.58877806
Fe       7.32285000       0.33022000       5.03535000      -0.99210900      -0.59745100       4.73628300      -1.02394746      -0.38777797       4.81957676
Fe       6.75330000       1.32958000       7.05071000       0.53851300       2.01290400       0.36400700       0.56618863       1.82434364       0.27587328
Fe       6.82686000       2.53028000       3.66692000      -0.08907100      -0.12987400      -0.26318300      -0.06916691      -0.21930575      -0.24495665
Fe       6.83617000       5.56618000       0.59386000       1.74434500       1.47371700      -3.32847200       1.80506838       1.62129910      -3.39134109
Fe       8.27091000       4.29855000       2.87718000       3.23308900       0.33980500       1.37352500       3.21511166       0.23673361       1.33920328
Fe       6.58774000       4.90718000       4.97515000      -1.87594500       0.58060600      -0.05143700      -2.14081754       0.59840988      -0.27529057
Fe       6.86773000       6.79187000       3.27473000       1.52763600      -2.76254700       0.67579100       1.40012094      -2.40784831       0.40752253
Fe       8.09083000       8.29691000       0.84396000      -4.18921500      -1.95965200       9.56442300      -4.22011155      -2.33412685       9.67193414
Fe       6.62133000       7.67903000       7.47205000      -3.65417600       1.51975600      -3.32990400      -3.88656859       1.23158777      -3.52047070
B        3.45077000       6.81738000       6.75435000       2.04131500      -2.79808300       3.80923700       1.90449326      -2.69576003       3.92836004
B        4.67436000       1.10514000       4.73414000       0.75036200       0.95391600      -0.52852700       0.82313868       0.86916375      -0.46414022
B        6.18153000       2.20088000       5.47737000      -4.49435700      -3.20609500      -2.27763700      -4.70921763      -3.15157642      -2.46452610
B        5.08133000       4.10197000       6.35983000       0.35152900       0.25548900      -0.65354500       0.58310327       0.33960780      -0.65439008
B        4.48663000       4.29393000       1.40792000      -0.27448100       1.04603100       0.21283300      -0.26949454       1.21488351       0.16256587
B        4.96286000       5.88068000       6.14703000       0.60492000      -1.85032800       0.29314600       0.64774837      -1.92078210       0.12217146
B        8.17242000       5.65216000       5.55863000       1.00443800       0.65677900      -0.69824300       1.03065224       0.75908396      -0.34562570
B        7.98743000       6.92663000       6.60530000       5.86774900       2.58695800      -4.05103700       5.84658545       2.52901336      -3.74375260
B        7.10769000       5.72812000       6.91109000      -2.33709700      -3.34606800       1.34633400      -2.34666219      -3.51941883       1.28538225
B        7.81665000       6.81498000       8.33858000       5.04350100      -2.41043400       0.97359300       5.17953844      -2.41329739       0.76170658
Si       0.06983000       0.14925000       7.74742000       4.12649000       2.60901100      -8.87608100       3.95472741       2.63408779      -8.86875566
Si       1.93337000       2.41223000       3.74634000      10.14534600       2.98113100     -12.18526000      10.23343413       3.11130406     -12.00814421
Si       0.75978000       6.02813000       1.69309000      -4.13401100      -0.74920300       1.02787300      -4.12902541      -0.86550920       1.03927983
Si       2.22023000       5.10313000       7.16329000      -1.58663400       1.19675500      -1.89967800      -1.77876049       1.18388523      -1.93834262
Si       3.27754000       8.17117000       8.35443000       4.04667900       4.58101600      -2.24829100       3.90929089       4.54039970      -2.47622281
Si       4.48145000       2.18337000       8.34202000      -5.72220500      -5.96162700      -4.99603400      -5.48927223      -5.82582669      -5.13374224
Si       6.36439000       4.54151000       2.12641000       2.28764700      -2.33178900       1.39384200       2.60666057      -2.24356905       1.25601632
Si       4.52267000       6.51460000       3.75633000       0.42177200       5.22743800       1.25328700       0.14872957       5.39304482       1.40647150
Si       7.68278000       0.22257000       3.11016000      -0.17295300       4.89916800      -3.86478000      -0.31308409       4.76521241      -3.99183887
Si       7.35363000       3.38410000       6.13231000       4.40786200       1.27045000       2.62604800       4.33173836       1.40216591       2.98928227
54
Lattice="8.579999685 0.0 0.0 0.0 8.579999685 0.0 0.0 0.0 8.5799996" Properties=species:S:1:pos:R:3:REF_forces:R:3:MACE_forces:R:3 config_type=Fe34B10Si10 REF_energy=-354.71875992 MACE_energy=-355.3494918965408 pbc="T T T"
Fe       0.43313000       1.19321000       2.96848000       1.47291300       2.99028000       0.61180900       1.61485208       2.98730654       0.30949086
Fe       0.91365000       1.12516000       8.09995000       2.76260400      -2.00335600       1.20968300       2.58931027      -2.17031373       1.12449000
Fe       1.17142000       2.67870000       5.23446000      -1.90323000       6.04651700       0.58026800      -1.67715594       6.30590870       0.60587184
Fe       0.60772000       3.85484000       0.87278000       2.66909500       4.89444800       4.53699300       2.66873188       5.09942741       4.27794551
Fe       1.41565000       3.44858000       3.01161000      -0.29549500       2.03729500      -0.74017400      -0.29037193       1.93546735      -0.67169480
Fe       0.04226000       2.91249000       8.09734000      -3.39897200      -2.84207300      -2.69442200      -3.12569664      -2.75277316      -2.52111341
Fe       1.33282000       7.09057000       5.22634000      -0.45239700      -1.35392500       0.92503500      -0.20845245      -1.49768874       0.80904277
Fe       2.06045000       7.92051000       0.98063000      -3.11321000      -0.30108300      -2.49280600      -3.23996977      -0.54094642      -2.32884348
Fe       2.03627000       8.24295000       3.50701000      -1.42216600       4.38122900       0.88517600      -1.52489028       4.19643455       0.55071231
Fe       0.01253000       8.02686000       7.00667000       2.58679700       0.98610200     -11.80201700       2.50901835       0.82789763     -11.92882215
Fe       3.00353000       0.57289000       6.13981000      -1.03922300       0.18357300       0.93137300      -0.71339218      -0.02285455       1.08291027
Fe       3.69949000       2.65196000       7.51811000       2.76433000      -4.34399200      -3.80269000       2.56987555      -4.14131378      -3.69454961
Fe       2.94478000       6.44154000       3.03987000       7.21319500      -3.66655800      -1.17614100       7.11764972      -3.35359437      -0.91075167
Fe       2.94309000       5.75189000       6.64956000      -6.24071800      -0.74678300       3.86021800      -6.61361423      -0.76528624       3.87959163
Fe       3.71160000       8.39321000       1.86324000       2.24845700      -0.43546600       0.28887200       2.35369913      -0.24853519       0.53014543
Fe       4.07810000       8.43915000       4.32840000       2.88035800       1.28304800      -0.49181300       2.94842438       1.49102574      -0.80976034
Fe       5.57499000       0.73262000       6.31633000      -3.12774100      -1.68249800      -0.98058200      -2.99696350      -1.73740034      -1.03304230
Fe       4.70712000       1.94493000       1.65492000      -2.04675700       4.97917500      -3.67899600      -2.14911451       4.81726989      -3.40080787
Fe       4.73401000       4.18392000       1.24748000       0.71501700       1.80608500      -0.06999200       0.72180318       2.00328992      -0.15440580
Fe       4.56687000       4.22266000       4.39618000       0.73801700       3.32591500      -2.10569900       0.62037427       3.50841208      -2.31688539
Fe       4.51224000       4.61167000       7.05684000       2.53211900      -0.41024200       0.53825400       2.99613086      -0.70053231       0.65058619
Fe       6.32808000       6.81945000       4.24288000      -3.20445400      -0.33519400      -1.28892300      -2.86295025      -0.31782974      -1.09314084
Fe       6.22240000       7.17309000       0.16230000      -3.30904600      -2.75215800       1.90373500      -3.55641837      -2.98192977       1.91293802
Fe       4.54224000       7.44382000       7.03838000       0.17895600      -5.02037800      -8.74618400       0.16356540      -5.31362041      -8.86684033
Fe       4.73272000       8.55832000       8.35561000      -0.10588400       8.96287400       6.54083400      -0.24623924       9.48957546       6.44105800
Fe       7.67285000       2.82429000       2.17742000      -2.12886900      -0.76272600      -2.06587500      -2.11327945      -0.69483448      -1.92526305
Fe       6.74071000       1.77406000       4.33655000       0.47479500       0.50025500      -0.42349800       0.14450130       0.53548588      -0.56897740
Fe       7.16362000       1.61896000       6.68131000       5.11373900       1.83737400       0.70818800       4.97536282       1.65794993       0.64466181
Fe       6.73653000       4.13840000       7.84564000       0.19062300       0.32905600       3.59274800       0.34916017       0.46290818       3.69515081
Fe       6.61248000       5.35948000       2.44590000       0.96755600      -0.77403900      -0.47053600       0.91636896      -0.76959258      -0.37622566
Fe       8.39074000       4.95678000       4.82580000       0.50677700       3.21370700       1.22596300       0.54056276       3.13847466       1.09337028
Fe       6.62275000       6.29700000       6.29237000       0.91106900      -0.58785400       1.74696000       0.85524860      -0.46354356       1.52908485
Fe       8.00875000       8.14674000       2.12563000      -1.25903800      -1.94608200      -3.37077000      -0.86920820      -1.96786705      -3.54380368
Fe       7.96861000       8.10559000       4.08816000       1.24434400       0.03207600       4.40361200       0.69455528      -0.04428109       4.64439861
B        3.14587000       1.61638000       2.59818000      -3.96044800      -1.57388800      -2.24367700      -4.10097995      -1.55768660      -2.21061172
B        4.07212000       1.93087000       3.78701000       0.55534200       0.12762300      -3.25123200       0.40343835      -0.04641713      -3.40167889
B        2.24412000       1.90783000       4.05913000      -1.80380000      -9.70850100      -5.48536600      -1.83556721      -9.88409703      -5.58836094
B        2.90130000       3.06657000       4.45062000       2.48509300       7.60479000      -1.50334300       2.77459352       7.05172076      -1.34305000
B        2.82587000       3.80138000       5.80651000       0.21675600       2.27927400       3.92227300       0.28551815       2.14366028       3.97497141
B        2.60929000       5.04297000       1.66311000       0.12617300      -0.77075900      -0.46531300      -0.04360848      -0.94298964      -0.47024970
B        2.47198000       4.95014000       4.32601000      -0.76752800      -1.31946700       0.35153300      -0.91922688      -1.11816819       0.33115731
B        2.73354000       7.81887000       7.66829000      -1.47869400      -0.15377200       0.00458000      -1.41281468      -0.12936525       0.10668841
B        5.68071000       2.28134000       7.79544000      -0.95924500       0.41857400       1.11780500      -1.05071021       0.37473436       1.11718151
B        7.77536000       3.70665000       3.76574000      -0.44877700      -1.48394500      -0.38974400      -0.50031580      -1.37615901      -0.18776877
Si       0.79518000       0.92195000       5.77957000      -1.66645900      -4.94136200      -1.10925300      -1.65169570      -5.09911282      -0.91435389
Si       0.88055000       4.20706000       6.73551000       1.15626000       3.58432200      -0.32349000       1.13313215       3.70952754      -0.27861775
Si       1.15025000       6.44729000       2.43826000      -7.77651300      -1.83655100      -1.54918700      -7.83170503      -1.64630279      -1.75393981
Si       2.82820000       3.29548000       0.50208000      -4.05499500       1.58525200       5.32597100      -4.14541181       1.39331293       5.14695580
Si       4.14031000       6.38272000       0.30005000      -2.16949800      -2.44928300       2.57761000      -2.30716350      -2.38689433       2.43966908
Si       3.68345000       6.43010000       5.01209000       3.98893100       0.98565200      -2.13453700       3.91995506       1.19317705      -2.03344380
Si       5.73751000       0.59059000       2.53265000       5.08228400      -4.90021500       2.23852200       5.21097515      -5.01084098       2.54525326
Si       4.51163000       2.47994000       5.36819000       2.60737700      -2.86786400       7.12589500       2.71062926      -2.59170999       7.30839533
Si       6.43436000       3.75222000       5.86206000       1.38008400       0.66155200      -3.64612400       1.49109014       0.69109227      -3.78832646
Si       8.06432000       7.52318000       8.55473000       2.36409700      -3.06603600      11.34847700       2.70838947      -2.73957786      11.36360821
18
Lattice="6.5 0.0 0.0 0.0 6.5 0.0 0.0 0.0 6.5" Properties=species:S:1:pos:R:3:REF_forces:R:3:MACE_forces:R:3 config_type=Fe12B3Si3 REF_energy=-113.87843945 MACE_energy=-112.49766017272827 pbc="T T T"
Fe       5.40234000       5.43492000       1.53729000      -1.39532100       2.04028400       0.71142300      -1.14892632       2.05717314       0.77983526
Fe       2.09750000       2.10361000       0.54730000       2.35673700      -0.33103000       1.27254800       2.75618847      -0.25679199       1.34079941
Fe       2.84360000       1.73250000       3.81271000       2.28004000      -1.18251600      -0.27344700       2.26670587      -1.09060338      -0.32095224
Fe       0.77541000       4.93717000       1.04317000       1.56096300      -3.83372900       1.76362000       1.54663925      -3.67203422       1.58085848
Fe       0.07665000       3.70431000       3.74351000      -0.75952900      -0.39175400      -2.23189700      -0.82872767      -0.46464088      -2.37016014
Fe       4.77171000       3.58949000       4.78220000      -1.99219600      -4.62409700       0.48420500      -1.83157245      -4.55009798       0.45808484
Fe       4.12430000       1.49867000       1.46476000       0.29771700      -2.38794700       0.28396300       0.36853738      -2.68545478       0.14683805
Fe       0.95387000       5.17746000       5.28728000      -0.57085000      -0.50160400      -1.80733600      -0.80967113      -0.67780476      -1.39049747
Fe       1.93602000       3.09888000       2.36598000      -0.08855100       0.43128300      -0.27209000      -0.23624682       0.59852228      -0.36207329
Fe       5.69037000       1.28357000       4.20026000      -0.40866000      -0.49067900       0.18976600      -0.66760018      -0.37853810       0.23969265
Fe       1.94321000       2.86141000       5.39871000      -0.55906500       0.73218900      -1.80086600      -0.71715449       1.19293922      -2.21489018
Fe       4.33122000       5.38124000       5.25469000      -0.73272900       4.56545400       1.52017900      -0.62450333       4.50607356       1.60518045
B        0.37598000       1.64060000       1.21420000      -3.21263000       2.85095800       0.76078000      -3.23193423       2.73889708       1.03499693
B        1.88110000       4.04794000       3.96741000       2.48956600       2.45119300      -0.32261600       2.50847316       2.20953191      -0.24861879
B        3.63878000       0.94242000       5.41981000      -0.01444500       0.67937600       0.95779200       0.01358409       0.77758115       1.09556106
Si       1.19380000       0.26963000       0.19686000       0.54051800       0.24528300      -1.93219100       0.58326557      -0.01020791      -1.88630293
Si       4.57825000       3.47658000       1.16117000       0.15934200       1.26766700      -0.81102600       0.19387283       1.33878919      -0.76125344
Si       1.09558000       0.76720000       2.75124000       0.04909300      -1.52033200       1.50719200      -0.14093000      -1.63333355       1.27290135
54
Lattice="8.579999685 0.0 0.0 0.0 8.579999685 0.0 0.0 0.0 8.5799996" Properties=species:S:1:pos:R:3:REF_forces:R:3:MACE_forces:R:3 config_type=Fe34B10Si10 REF_energy=-356.0869274 MACE_energy=-357.0661483307193 pbc="T T T"
Fe       0.92877000       1.08311000       2.12831000      -0.53214900      -1.15432400       0.53007800      -0.60670728      -1.16443006       0.46917070
Fe       1.12794000       0.45096000       7.37327000      -2.86345100       2.18226700       1.45805300      -2.74701303       2.10156470       1.41058601
Fe       0.91289000       3.61082000       1.96264000      -1.66570100       0.50807500      -4.76654600      -1.58066937       0.07941857      -4.44550265
Fe       0.97242000       3.25012000       3.83975000      -0.85629000      -1.23507100      -0.91491200      -1.07742747      -1.03950151      -0.65956738
Fe       1.43574000       3.84332000       5.84621000      -1.94378300      -0.72872400       4.94145300      -2.06604849      -0.53616295       4.71106819
Fe       0.45897000       5.99881000       1.32384000       1.86679900       1.45939200      -0.33976700       1.67008160       1.46344483      -0.17104086
Fe       0.05714000       6.25044000       6.01250000       0.66851500      -0.88142700       1.67028200       0.62356700      -0.75546011       1.74314963
Fe       1.87526000       7.05991000       7.27744000      -5.90957000       6.81146600       5.95768600      -5.62213174       6.96930022       5.79338019
Fe       4.21220000       0.80536000       3.81626000       0.44958900      -1.97725700       0.54591300       0.53292388      -1.79452551       0.46760821
Fe       2.64196000       0.75311000       5.88605000       0.80305000      -0.92688600      -1.50973400       0.49555750      -1.09143139      -1.52539593
Fe       2.51735000       4.27963000       7.86001000      -0.17185400       2.88247300       0.00075600      -0.18718313       3.06111750       0.07703694
Fe       2.46175000       4.76211000       4.38544000       2.27245000       6.36429500      -0.60000700       2.27779819       6.36911703      -0.46537836
Fe       3.99132000       4.46692000       6.09268000      -0.21521200      -1.96607600      -0.25853400      -0.34364782      -2.20219653      -0.14189715
Fe       4.03283000       6.20484000       2.50717000       0.32509400      -1.83048700       1.07686200       0.34390722      -1.78144476       1.11012579
Fe       2.62183000       8.12097000       1.25125000      -5.45108600      -1.04608100      -0.88869000      -5.60876981      -1.08905132      -0.67058520
Fe       2.34208000       7.49949000       3.33705000      -1.45221900       0.10179900       1.96325000      -1.30443841       0.10736657       1.58524259
Fe       4.67554000       0.98699000       8.35162000       1.97529500       0.95938300       0.07305200       1.70735527       0.86603903       0.34164313
Fe       4.68615000       2.28426000       1.60336000       6.03713100       4.39249100       1.56082500       6.16133457       4.36390027       1.10858179
Fe       4.95897000       4.28949000       0.91503000       1.24258400       3.77490300      -1.07876200       0.80508995       3.55145075      -1.16968510
Fe       5.62605000       3.84953000       3.25301000      -4.56775200       3.43217100       2.09526400      -4.72492571       3.42205858       1.96168704
Fe       5.63153000       5.70233000       4.67966000       0.04558900       0.36352900      -0.74034800       0.11519687      -0.04925218      -0.58208887
Fe       5.00954000       6.14620000       6.89198000       4.51113600      -2.60361300       1.43664400       4.57572891      -2.57433555       1.28384009
Fe       5.34723000       7.32984000       0.56425000       3.41130600      -7.55812200      -7.44238600       3.20257867      -7.17228275      -7.13455782
Fe       4.57141000       8.20633000       1.67615000      -2.51651100       6.57056000       9.11650700      -2.28344464       6.21489233       8.84720936
Fe       5.67084000       7.83697000       6.02451000      -0.02983000       3.57151200       0.33120700      -0.04229905       3.68506442       0.46367864
Fe       7.65837000       1.05332000       0.64336000       1.95813700       2.93603900      -3.62028800       1.78024494       2.79704190      -3.41435028
Fe       7.23579000       1.49494000       3.62009000       0.88838800      -1.50203300       3.00240400       1.06679525      -1.49718815       3.00458643
Fe       6.96409000       1.59543000       6.70415000       0.40175100      -2.57633900      -0.54943900       0.43774739      -2.38676352      -0.46330567
Fe       6.97946000       3.05325000       2.27831000       3.01329100      -2.85779700      -7.80747400       2.67217819      -2.88739574      -7.43218653
Fe       7.05854000       3.62734000       7.13255000       0.94483300       2.42104600       2.56329500       0.99529550       2.26979720       2.34632463
Fe       7.47490000       4.49325000       0.92243000      -3.13561000       0.06366500       0.11142200      -2.80690785       0.41431240      -0.12874501
Fe       7.76499000       5.40883000       4.05655000       3.42051700      -2.49950500       1.10150300       3.64511445      -2.68447635       1.14182192
Fe       6.91686000       6.16423000       2.38917000      -4.34160700       0.52717700      -3.24358900      -4.39470190       0.88764070      -3.26308464
Fe       7.31773000       7.39473000       4.73130000      -1.41907300       3.06948200       1.38572900      -1.46423079       2.97776747       1.32570825
B        1.63947000       5.44017000       2.85377000      -1.37965300       1.67099600      -0.34434500      -1.40400063       1.77526115      -0.51924883
B        3.47444000       1.29905000       1.69513000      -6.04542900      -7.46227000      -1.52467000      -6.13736350      -7.01048386      -1.31354088
B        2.31673000       1.42955000       3.77944000      -1.85652800      -2.14982900       3.21956500      -1.85787211      -1.95102390       3.29237594
B        3.17088000       0.01260000       8.16689000      -2.14308300      -0.12737100      -3.63430700      -2.08522698       0.14824189      -3.46925357
B        2.48887000       2.23189000       2.44876000      -1.30373000       3.96631200      -0.94871100      -0.92250854       3.67320487      -1.25305346
B        3.55016000       3.21990000       0.17024000       2.13469500      -3.52588700       0.23974700       2.15801128      -3.60714962       0.39034709
B        3.12966000       3.07291000       4.24572000      -6.99085300       0.34377600      -0.16579100      -6.82281448       0.08992442      -0.15930759
B        2.38358000       5.95301000       6.34325000       2.25901800      -8.76611800      -6.31465800       2.12483577      -9.06442161      -6.44332555
B        4.46260000       2.62992000       4.23823000       7.08507900      -1.75449200       0.40993300       6.95365476      -1.82197409       0.34544965
B        7.51183000       3.59374000       3.85724000       1.49621300      -1.20378300       3.39561400       1.49091739      -0.99754064       3.22343295
Si       0.50050000       1.66927000       5.10425000      -1.02554400      -2.67263500       2.61432900      -0.78495490      -2.97991369       2.54291566
Si       0.41923000       4.50138000       8.15701000       0.82744200      -0.47721100      -2.57541600       1.10609347      -0.43975870      -2.75711218
Si       2.90131000       4.25049000       1.93860000       2.71957100       0.04497600      -0.88170100       2.69173365       0.00123154      -1.02888368
Si       3.74353000       6.85388000       5.19884000      -1.20766000       1.80214700      -2.20114300      -1.08633802       1.95035422      -2.06870991
Si       3.54209000       6.47938000       8.21357000      -0.45014500      -1.75854100       4.24377300      -0.57087885      -2.01510551       4.42485238
Si       4.55252000       1.74669000       6.40118000       0.28733400       0.20348600      -1.69136000       0.29089401       0.23139402      -1.66944184
Si       5.87020000       3.30923000       5.41310000       1.93974000       0.55942400      -1.14043100       1.68896778       0.82612674      -1.26285471
Si       6.68392000       0.09389000       2.07850000      -2.78148600      -1.30329400       2.70552900      -2.56259422      -1.23928777       2.86996067
Si       7.30980000       7.36953000       0.08595000       4.18267400      -0.22507900      -1.67891000       4.44518434      -0.36405309      -1.75266580
Si       8.41387000       7.50606000       2.97540000       5.08859000       1.78741200      -0.88875800       5.03631092       1.89957755      -0.91701438
54
Lattice="8.579999685 0.0 0.0 0.0 8.579999685 0.0 0.0 0.0 8.5799996" Properties=species:S:1:pos:R:3:REF_forces:R:3:MACE_forces:R:3 config_type=Fe34B10Si10 REF_energy=-359.84864784 MACE_energy=-360.44095302838156 pbc="T T T"
Fe       0.39531000       2.37288000       0.87042000       3.27925500       2.43832800      -1.60261100       3.16868942       2.60263862      -1.70610210
Fe       0.75383000       1.65209000       3.11094000       1.30783500      -0.34615400      -0.09267000       1.38801497      -0.67856663       0.04774902
Fe       1.33201000       3.79282000       7.26231000      -2.40668100      -1.18131200       0.32245500      -2.54996686      -1.19938278       0.18740498
Fe       0.64436000       4.41396000       2.97573000       2.42004200      -2.26182600       0.38963900       2.47215318      -2.06287897       0.21199051
Fe       0.14751000       6.42079000       3.51005000      -3.07002100       1.32407200      -2.30638400      -3.18891672       1.34692999      -2.49719386