54
Lattice="8.579999685 0.0 0.0 0.0 8.579999685 0.0 0.0 0.0 8.5799996" Properties=species:S:1:pos:R:3:REF_forces:R:3:MACE_forces:R:3 config_type=Fe34B10Si10 REF_energy=-352.89092233 MACE_energy=-353.30071790809694 pbc="T T T"
Fe       1.46495000       0.71583000       1.12880000       3.73230100      -3.41607500      -3.76209700       3.67549871      -3.54680412      -3.54346957
Fe       0.56244000       2.07917000       1.96452000      -3.31290700       4.06628900       2.54508600      -3.21504549       3.98156576       2.36280789
Fe       0.86636000       2.12990000       5.00906000     -10.85567700      -2.87102900      12.20968700     -10.95115426      -2.94609823      12.21825526
Fe       0.24697000       2.61233000       7.83061000      -0.37811800      -2.03816900      -0.08744800      -0.41201215      -1.90666461       0.09114156
Fe       0.35437000       4.66395000       8.16447000      -1.30300600       1.62250000       0.84662400      -1.33925956       1.60339004       0.77003234
Fe       0.83543000       8.00840000       3.01492000       5.54921000      -2.55787300       0.52513800       5.70747082      -2.53469063       0.37579411
Fe       2.03952000       7.84431000       6.63062000      -4.28706100       1.82495200      -1.68802900      -4.07387974       1.95541677      -1.65494203
Fe       3.34318000       0.11090000       2.96052000      -0.46571400      -0.35056300       0.37864800      -0.53247290      -0.22799623       0.46433793
Fe       3.26317000       2.11539000       1.48699000      -3.47884800      -0.03222100       0.61542300      -3.41193751      -0.28610662       0.18260181
Fe       4.14313000       2.75755000       3.31065000      -0.71378000      -2.73118300       1.93004800      -0.61210060      -2.37284866       1.84193448
Fe       2.55051000       2.67374000       7.19710000      -2.55215900      -0.93589000       1.77261600      -2.30848267      -1.14980278       1.70850557
Fe       3.61327000       2.86500000       5.46497000       1.55763200       0.20514300      -0.56676300       1.45667041       0.26897430      -0.26827417
Fe       2.62400000       4.72550000       1.39174000      -1.08585200      -1.19598700       0.59645400      -1.34848142      -1.02814997       0.69700731
Fe       2.20317000       5.21693000       3.87451000      -3.92870900      -4.38103900      -4.92199500      -3.86483474      -4.42050047      -4.99532643
Fe       3.93082000       4.37819000       8.08226000       1.07616800       0.44807800      -0.99700400       1.03442682       0.29419442      -0.91781367
Fe       2.44961000       7.01753000       1.08943000       0.32119000      -1.55635000       3.27006500       0.45870548      -1.64004242       3.26001489
Fe       3.02500000       6.15780000       5.08193000      -1.08486800       1.64126100       3.95415400      -0.64245184       1.67382911       4.07858789
Fe       5.77712000       0.44616000       0.16142000      -2.43333700       0.07175000       4.13474700      -2.46836287       0.39949745       4.20660176
Fe       5.66964000       0.14892000       2.95259000      -3.67617900       1.90971100       0.12919700      -3.62341697       1.63844167       0.31835423
Fe       5.39484000       2.66317000       1.55162000       4.08183700      -3.39937100       3.88213200       4.01017563      -3.63206749       4.02685947
Fe       5.91309000       3.40423000       8.31953000       8.90196200       5.48305700      -2.72562400       8.72981072       5.48019466      -2.71431201
Fe       4.96126000       4.63305000       3.41410000      -3.60269200      -2.00302700       2.25051900      -3.74008224      -2.21456794       2.35483262
Fe       5.11347000       6.81217000       1.78872000      -0.87770500       0.06714300      -1.61156800      -0.70541599       0.08044470      -1.54999176
Fe       5.00950000       6.45991000       8.24507000      -2.30619500      -0.19808200      -1.52355700      -2.25629872       0.03110762      -1.67603411
Fe       4.64263000       7.71190000       5.75084000       2.50156800       4.23919200      -1.55456800       2.62120705       4.24850280      -1.58664119
Fe       7.32285000       0.33022000       5.03535000      -0.99210900      -0.59745100       4.73628300      -1.02540610      -0.38818765       4.81875998
Fe       6.75330000       1.32958000       7.05071000       0.53851300       2.01290400       0.36400700       0.56757393       1.82226295       0.26986656
Fe       6.82686000       2.53028000       3.66692000      -0.08907100      -0.12987400      -0.26318300      -0.07011223      -0.22001192      -0.23267017
Fe       6.83617000       5.56618000       0.59386000       1.74434500       1.47371700      -3.32847200       1.80609199       1.61846143      -3.38903889
Fe       8.27091000       4.29855000       2.87718000       3.23308900       0.33980500       1.37352500       3.21562377       0.24795331       1.34440893
Fe       6.58774000       4.90718000       4.97515000      -1.87594500       0.58060600      -0.05143700      -2.13251315       0.59036492      -0.27388730
Fe       6.86773000       6.79187000       3.27473000       1.52763600      -2.76254700       0.67579100       1.39069660      -2.41130901       0.40308140
Fe       8.09083000       8.29691000       0.84396000      -4.18921500      -1.95965200       9.56442300      -4.21275263      -2.32377935       9.67314793
Fe       6.62133000       7.67903000       7.47205000      -3.65417600       1.51975600      -3.32990400      -3.90041425       1.25673017      -3.51492414
B        3.45077000       6.81738000       6.75435000       2.04131500      -2.79808300       3.80923700       1.91843851      -2.70135718       3.91885088
B        4.67436000       1.10514000       4.73414000       0.75036200       0.95391600      -0.52852700       0.82088002       0.86636465      -0.46080548
B        6.18153000       2.20088000       5.47737000      -4.49435700      -3.20609500      -2.27763700      -4.69985474      -3.14451729      -2.45444148
B        5.08133000       4.10197000       6.35983000       0.35152900       0.25548900      -0.65354500       0.57959668       0.34151478      -0.66174571
B        4.48663000       4.29393000       1.40792000      -0.27448100       1.04603100       0.21283300      -0.26549977       1.21271277       0.17444508
B        4.96286000       5.88068000       6.14703000       0.60492000      -1.85032800       0.29314600       0.64680692      -1.92604946       0.12415164
B        8.17242000       5.65216000       5.55863000       1.00443800       0.65677900      -0.69824300       1.01763190       0.76088756      -0.33084114
B        7.98743000       6.92663000       6.60530000       5.86774900       2.58695800      -4.05103700       5.84906304       2.52529918      -3.75188570
B        7.10769000       5.72812000       6.91109000      -2.33709700      -3.34606800       1.34633400      -2.33603000      -3.53731266       1.28343120
B        7.81665000       6.81498000       8.33858000       5.04350100      -2.41043400       0.97359300       5.17197245      -2.43181772       0.75584808
Si       0.06983000       0.14925000       7.74742000       4.12649000       2.60901100      -8.87608100       3.94800237       2.62878321      -8.85797671
Si       1.93337000       2.41223000       3.74634000      10.14534600       2.98113100     -12.18526000      10.23279340       3.10346564     -12.01171719
Si       0.75978000       6.02813000       1.69309000      -4.13401100      -0.74920300       1.02787300      -4.13873936      -0.87549458       1.04206298
Si       2.22023000       5.10313000       7.16329000      -1.58663400       1.19675500      -1.89967800      -1.77584446       1.19362856      -1.93996328
Si       3.27754000       8.17117000       8.35443000       4.04667900       4.58101600      -2.24829100       3.90389838       4.54173675      -2.47499945
Si       4.48145000       2.18337000       8.34202000      -5.72220500      -5.96162700      -4.99603400      -5.48385185      -5.81932922      -5.14287605
Si       6.36439000       4.54151000       2.12641000       2.28764700      -2.33178900       1.39384200       2.59971679      -2.24013386       1.24344368
Si       4.52267000       6.51460000       3.75633000       0.42177200       5.22743800       1.25328700       0.16855620       5.39505245       1.40525975
Si       7.68278000       0.22257000       3.11016000      -0.17295300       4.89916800      -3.86478000      -0.31742722       4.75865144      -3.98914509
Si       7.35363000       3.38410000       6.13231000       4.40786200       1.27045000       2.62604800       4.33282686       1.40621100       2.97929551
54
Lattice="8.579999685 0.0 0.0 0.0 8.579999685 0.0 0.0 0.0 8.5799996" Properties=species:S:1:pos:R:3:REF_forces:R:3:MACE_forces:R:3 config_type=Fe34B10Si10 REF_energy=-354.71875992 MACE_energy=-355.34423370842825 pbc="T T T"
Fe       0.43313000       1.19321000       2.96848000       1.47291300       2.99028000       0.61180900       1.60741991       2.98280487       0.30191569
Fe       0.91365000       1.12516000       8.09995000       2.76260400      -2.00335600       1.20968300       2.59558371      -2.17100725       1.13112217
Fe       1.17142000       2.67870000       5.23446000      -1.90323000       6.04651700       0.58026800      -1.66805722       6.30550284       0.60461710
Fe       0.60772000       3.85484000       0.87278000       2.66909500       4.89444800       4.53699300       2.67876443       5.08157489       4.25874375
Fe       1.41565000       3.44858000       3.01161000      -0.29549500       2.03729500      -0.74017400      -0.29939445       1.92836352      -0.67605263
Fe       0.04226000       2.91249000       8.09734000      -3.39897200      -2.84207300      -2.69442200      -3.14773308      -2.74365097      -2.51952981
Fe       1.33282000       7.09057000       5.22634000      -0.45239700      -1.35392500       0.92503500      -0.20345323      -1.50651579       0.81253524
Fe       2.06045000       7.92051000       0.98063000      -3.11321000      -0.30108300      -2.49280600      -3.24669193      -0.53482893      -2.32089796
Fe       2.03627000       8.24295000       3.50701000      -1.42216600       4.38122900       0.88517600      -1.50491534       4.19192940       0.54114555
Fe       0.01253000       8.02686000       7.00667000       2.58679700       0.98610200     -11.80201700       2.50217104       0.83521060     -11.95895494
Fe       3.00353000       0.57289000       6.13981000      -1.03922300       0.18357300       0.93137300      -0.70969998      -0.02638205       1.08403011
Fe       3.69949000       2.65196000       7.51811000       2.76433000      -4.34399200      -3.80269000       2.57591934      -4.14542182      -3.68965643
Fe       2.94478000       6.44154000       3.03987000       7.21319500      -3.66655800      -1.17614100       7.10873785      -3.31668778      -0.89725392
Fe       2.94309000       5.75189000       6.64956000      -6.24071800      -0.74678300       3.86021800      -6.59844500      -0.76985471       3.87023097
Fe       3.71160000       8.39321000       1.86324000       2.24845700      -0.43546600       0.28887200       2.35177299      -0.24420536       0.54171879
Fe       4.07810000       8.43915000       4.32840000       2.88035800       1.28304800      -0.49181300       2.94437416       1.48988175      -0.81410530
Fe       5.57499000       0.73262000       6.31633000      -3.12774100      -1.68249800      -0.98058200      -2.99269588      -1.74683592      -1.02133369
Fe       4.70712000       1.94493000       1.65492000      -2.04675700       4.97917500      -3.67899600      -2.15633799       4.80347812      -3.39087892
Fe       4.73401000       4.18392000       1.24748000       0.71501700       1.80608500      -0.06999200       0.71607968       2.00242145      -0.15920275
Fe       4.56687000       4.22266000       4.39618000       0.73801700       3.32591500      -2.10569900       0.61371634       3.48837448      -2.31972085
Fe       4.51224000       4.61167000       7.05684000       2.53211900      -0.41024200       0.53825400       2.98286614      -0.69486288       0.64724399
Fe       6.32808000       6.81945000       4.24288000      -3.20445400      -0.33519400      -1.28892300      -2.86348956      -0.31587334      -1.08707523
Fe       6.22240000       7.17309000       0.16230000      -3.30904600      -2.75215800       1.90373500      -3.57067524      -2.98213657       1.90065149
Fe       4.54224000       7.44382000       7.03838000       0.17895600      -5.02037800      -8.74618400       0.17015278      -5.27583828      -8.84922595
Fe       4.73272000       8.55832000       8.35561000      -0.10588400       8.96287400       6.54083400      -0.24729868       9.47979923       6.41738071
Fe       7.67285000       2.82429000       2.17742000      -2.12886900      -0.76272600      -2.06587500      -2.11490753      -0.71429056      -1.93469219
Fe       6.74071000       1.77406000       4.33655000       0.47479500       0.50025500      -0.42349800       0.15481591       0.53577401      -0.56222060
Fe       7.16362000       1.61896000       6.68131000       5.11373900       1.83737400       0.70818800       4.97041124       1.66539179       0.64390737
Fe       6.73653000       4.13840000       7.84564000       0.19062300       0.32905600       3.59274800       0.34783021       0.45989268       3.68270786
Fe       6.61248000       5.35948000       2.44590000       0.96755600      -0.77403900      -0.47053600       0.91793299      -0.77257614      -0.38528577
Fe       8.39074000       4.95678000       4.82580000       0.50677700       3.21370700       1.22596300       0.54931370       3.15232974       1.10353437
Fe       6.62275000       6.29700000       6.29237000       0.91106900      -0.58785400       1.74696000       0.85895611      -0.46309339       1.52906981
Fe       8.00875000       8.14674000       2.12563000      -1.25903800      -1.94608200      -3.37077000      -0.86236842      -1.95975696      -3.54950296
Fe       7.96861000       8.10559000       4.08816000       1.24434400       0.03207600       4.40361200       0.70277169      -0.04134195       4.64403915
B        3.14587000       1.61638000       2.59818000      -3.96044800      -1.57388800      -2.24367700      -4.10142556      -1.55861926      -2.21386299
B        4.07212000       1.93087000       3.78701000       0.55534200       0.12762300      -3.25123200       0.41410181      -0.03941446      -3.40282355
B        2.24412000       1.90783000       4.05913000      -1.80380000      -9.70850100      -5.48536600      -1.83663546      -9.87949395      -5.58855944
B        2.90130000       3.06657000       4.45062000       2.48509300       7.60479000      -1.50334300       2.76905596       7.04065760      -1.33451976
B        2.82587000       3.80138000       5.80651000       0.21675600       2.27927400       3.92227300       0.29235720       2.14408418       3.97017752
B        2.60929000       5.04297000       1.66311000       0.12617300      -0.77075900      -0.46531300      -0.04186784      -0.94402848      -0.48774961
B        2.47198000       4.95014000       4.32601000      -0.76752800      -1.31946700       0.35153300      -0.92210244      -1.12087418       0.33552868
B        2.73354000       7.81887000       7.66829000      -1.47869400      -0.15377200       0.00458000      -1.41555127      -0.12743008       0.10753277
B        5.68071000       2.28134000       7.79544000      -0.95924500       0.41857400       1.11780500      -1.05488957       0.38301279       1.11842549
B        7.77536000       3.70665000       3.76574000      -0.44877700      -1.48394500      -0.38974400      -0.50561118      -1.38171066      -0.18173908
Si       0.79518000       0.92195000       5.77957000      -1.66645900      -4.94136200      -1.10925300      -1.64217666      -5.10618320      -0.90977208
Si       0.88055000       4.20706000       6.73551000       1.15626000       3.58432200      -0.32349000       1.12097340       3.71280807      -0.27195702
Si       1.15025000       6.44729000       2.43826000      -7.77651300      -1.83655100      -1.54918700      -7.82189096      -1.64015933      -1.74794997
Si       2.82820000       3.29548000       0.50208000      -4.05499500       1.58525200       5.32597100      -4.13719572       1.40074122       5.14980616
Si       4.14031000       6.38272000       0.30005000      -2.16949800      -2.44928300       2.57761000      -2.30539152      -2.39633292       2.43584272
Si       3.68345000       6.43010000       5.01209000       3.98893100       0.98565200      -2.13453700       3.91427828       1.18100450      -2.02576338
Si       5.73751000       0.59059000       2.53265000       5.08228400      -4.90021500       2.23852200       5.20556271      -5.00643595       2.54586170
Si       4.51163000       2.47994000       5.36819000       2.60737700      -2.86786400       7.12589500       2.70934400      -2.58348380       7.31178769
Si       6.43436000       3.75222000       5.86206000       1.38008400       0.66155200      -3.64612400       1.48201428       0.69157924      -3.78274928
Si       8.06432000       7.52318000       8.55473000       2.36409700      -3.06603600      11.34847700       2.71362385      -2.74729007      11.39347920
18
Lattice="6.5 0.0 0.0 0.0 6.5 0.0 0.0 0.0 6.5" Properties=species:S:1:pos:R:3:REF_forces:R:3:MACE_forces:R:3 config_type=Fe12B3Si3 REF_energy=-113.87843945 MACE_energy=-112.51943385742294 pbc="T T T"
Fe       5.40234000       5.43492000       1.53729000      -1.39532100       2.04028400       0.71142300      -1.14420084       2.05466765       0.77921248
Fe       2.09750000       2.10361000       0.54730000       2.35673700      -0.33103000       1.27254800       2.78021928      -0.23657430       1.32596132
Fe       2.84360000       1.73250000       3.81271000       2.28004000      -1.18251600      -0.27344700       2.26670024      -1.11273150      -0.32034593
Fe       0.77541000       4.93717000       1.04317000       1.56096300      -3.83372900       1.76362000       1.54291880      -3.69221930       1.57962929
Fe       0.07665000       3.70431000       3.74351000      -0.75952900      -0.39175400      -2.23189700      -0.82757884      -0.46694189      -2.38934704
Fe       4.77171000       3.58949000       4.78220000      -1.99219600      -4.62409700       0.48420500      -1.84055531      -4.55417262       0.46601016
Fe       4.12430000       1.49867000       1.46476000       0.29771700      -2.38794700       0.28396300       0.38224418      -2.68740163       0.14392265
Fe       0.95387000       5.17746000       5.28728000      -0.57085000      -0.50160400      -1.80733600      -0.80145605      -0.66120330      -1.38158867
Fe       1.93602000       3.09888000       2.36598000      -0.08855100       0.43128300      -0.27209000      -0.24515854       0.60204290      -0.36773015
Fe       5.69037000       1.28357000       4.20026000      -0.40866000      -0.49067900       0.18976600      -0.65820314      -0.37688275       0.23631323
Fe       1.94321000       2.86141000       5.39871000      -0.55906500       0.73218900      -1.80086600      -0.72809360       1.20045971      -2.21539234
Fe       4.33122000       5.38124000       5.25469000      -0.73272900       4.56545400       1.52017900      -0.61709788       4.51826255       1.59708985
B        0.37598000       1.64060000       1.21420000      -3.21263000       2.85095800       0.76078000      -3.25109287       2.73451630       1.05255337
B        1.88110000       4.04794000       3.96741000       2.48956600       2.45119300      -0.32261600       2.50566666       2.19337605      -0.23375132
B        3.63878000       0.94242000       5.41981000      -0.01444500       0.67937600       0.95779200       0.00569552       0.78878289       1.09755295
Si       1.19380000       0.26963000       0.19686000       0.54051800       0.24528300      -1.93219100       0.57514309      -0.01622105      -1.88590291
Si       4.57825000       3.47658000       1.16117000       0.15934200       1.26766700      -0.81102600       0.20145536       1.33768776      -0.76127352
Si       1.09558000       0.76720000       2.75124000       0.04909300      -1.52033200       1.50719200      -0.14660607      -1.62544745       1.27708658
54
Lattice="8.579999685 0.0 0.0 0.0 8.579999685 0.0 0.0 0.0 8.5799996" Properties=species:S:1:pos:R:3:REF_forces:R:3:MACE_forces:R:3 config_type=Fe34B10Si10 REF_energy=-356.0869274 MACE_energy=-357.064753771395 pbc="T T T"
Fe       0.92877000       1.08311000       2.12831000      -0.53214900      -1.15432400       0.53007800      -0.60961014      -1.15300752       0.47664042
Fe       1.12794000       0.45096000       7.37327000      -2.86345100       2.18226700       1.45805300      -2.75677965       2.11071704       1.42121613
Fe       0.91289000       3.61082000       1.96264000      -1.66570100       0.50807500      -4.76654600      -1.59045721       0.07712980      -4.45664272
Fe       0.97242000       3.25012000       3.83975000      -0.85629000      -1.23507100      -0.91491200      -1.07715325      -1.04902427      -0.65881243
Fe       1.43574000       3.84332000       5.84621000      -1.94378300      -0.72872400       4.94145300      -2.05717278      -0.52862425       4.70556813
Fe       0.45897000       5.99881000       1.32384000       1.86679900       1.45939200      -0.33976700       1.67193011       1.45510383      -0.16855253
Fe       0.05714000       6.25044000       6.01250000       0.66851500      -0.88142700       1.67028200       0.61462215      -0.76246304       1.74282895
Fe       1.87526000       7.05991000       7.27744000      -5.90957000       6.81146600       5.95768600      -5.61648307       6.97802143       5.79199316
Fe       4.21220000       0.80536000       3.81626000       0.44958900      -1.97725700       0.54591300       0.53465436      -1.80208321       0.45893607
Fe       2.64196000       0.75311000       5.88605000       0.80305000      -0.92688600      -1.50973400       0.50337851      -1.09207239      -1.54392981
Fe       2.51735000       4.27963000       7.86001000      -0.17185400       2.88247300       0.00075600      -0.19258344       3.06220352       0.07352968
Fe       2.46175000       4.76211000       4.38544000       2.27245000       6.36429500      -0.60000700       2.26581680       6.36937623      -0.46030569
Fe       3.99132000       4.46692000       6.09268000      -0.21521200      -1.96607600      -0.25853400      -0.33859677      -2.19461179      -0.12790018
Fe       4.03283000       6.20484000       2.50717000       0.32509400      -1.83048700       1.07686200       0.34176470      -1.79370063       1.11852632
Fe       2.62183000       8.12097000       1.25125000      -5.45108600      -1.04608100      -0.88869000      -5.60466663      -1.09697982      -0.66867603
Fe       2.34208000       7.49949000       3.33705000      -1.45221900       0.10179900       1.96325000      -1.30495324       0.10587184       1.58264560
Fe       4.67554000       0.98699000       8.35162000       1.97529500       0.95938300       0.07305200       1.69776955       0.85480474       0.34202123
Fe       4.68615000       2.28426000       1.60336000       6.03713100       4.39249100       1.56082500       6.15363876       4.36184835       1.10448669
Fe       4.95897000       4.28949000       0.91503000       1.24258400       3.77490300      -1.07876200       0.80422445       3.54145858      -1.16907808
Fe       5.62605000       3.84953000       3.25301000      -4.56775200       3.43217100       2.09526400      -4.71597584       3.42456895       1.95138722
Fe       5.63153000       5.70233000       4.67966000       0.04558900       0.36352900      -0.74034800       0.12745628      -0.05645233      -0.59335893
Fe       5.00954000       6.14620000       6.89198000       4.51113600      -2.60361300       1.43664400       4.57748226      -2.58697040       1.28036098
Fe       5.34723000       7.32984000       0.56425000       3.41130600      -7.55812200      -7.44238600       3.18579203      -7.16196378      -7.10927931
Fe       4.57141000       8.20633000       1.67615000      -2.51651100       6.57056000       9.11650700      -2.26057528       6.23247466       8.82942599
Fe       5.67084000       7.83697000       6.02451000      -0.02983000       3.57151200       0.33120700      -0.04619325       3.69028605       0.46203748
Fe       7.65837000       1.05332000       0.64336000       1.95813700       2.93603900      -3.62028800       1.78002203       2.80627082      -3.40350676
Fe       7.23579000       1.49494000       3.62009000       0.88838800      -1.50203300       3.00240400       1.06835475      -1.49915331       3.00399077
Fe       6.96409000       1.59543000       6.70415000       0.40175100      -2.57633900      -0.54943900       0.44147593      -2.38379881      -0.46794506
Fe       6.97946000       3.05325000       2.27831000       3.01329100      -2.85779700      -7.80747400       2.65346513      -2.89143922      -7.44526426
Fe       7.05854000       3.62734000       7.13255000       0.94483300       2.42104600       2.56329500       1.00107348       2.27381400       2.35543432
Fe       7.47490000       4.49325000       0.92243000      -3.13561000       0.06366500       0.11142200      -2.81055191       0.41410845      -0.12856656
Fe       7.76499000       5.40883000       4.05655000       3.42051700      -2.49950500       1.10150300       3.64509206      -2.67451409       1.15285599
Fe       6.91686000       6.16423000       2.38917000      -4.34160700       0.52717700      -3.24358900      -4.38826726       0.88182421      -3.25582508
Fe       7.31773000       7.39473000       4.73130000      -1.41907300       3.06948200       1.38572900      -1.46580973       2.97571879       1.33023539
B        1.63947000       5.44017000       2.85377000      -1.37965300       1.67099600      -0.34434500      -1.40847801       1.77054416      -0.50806440
B        3.47444000       1.29905000       1.69513000      -6.04542900      -7.46227000      -1.52467000      -6.14001705      -6.99707322      -1.30448877
B        2.31673000       1.42955000       3.77944000      -1.85652800      -2.14982900       3.21956500      -1.85685395      -1.94018360       3.27983665
B        3.17088000       0.01260000       8.16689000      -2.14308300      -0.12737100      -3.63430700      -2.07877123       0.13979148      -3.46953010
B        2.48887000       2.23189000       2.44876000      -1.30373000       3.96631200      -0.94871100      -0.93136890       3.67052207      -1.23907174
B        3.55016000       3.21990000       0.17024000       2.13469500      -3.52588700       0.23974700       2.17391206      -3.61370432       0.38549306
B        3.12966000       3.07291000       4.24572000      -6.99085300       0.34377600      -0.16579100      -6.82356437       0.09589505      -0.16254478
B        2.38358000       5.95301000       6.34325000       2.25901800      -8.76611800      -6.31465800       2.12465427      -9.07525098      -6.45324058
B        4.46260000       2.62992000       4.23823000       7.08507900      -1.75449200       0.40993300       6.93755192      -1.82328486       0.36844314
B        7.51183000       3.59374000       3.85724000       1.49621300      -1.20378300       3.39561400       1.49163338      -0.99743935       3.23467911
Si       0.50050000       1.66927000       5.10425000      -1.02554400      -2.67263500       2.61432900      -0.78445739      -2.97482820       2.53618092
Si       0.41923000       4.50138000       8.15701000       0.82744200      -0.47721100      -2.57541600       1.11882791      -0.43997015      -2.76447763
Si       2.90131000       4.25049000       1.93860000       2.71957100       0.04497600      -0.88170100       2.68768669       0.00020986      -1.01719051
Si       3.74353000       6.85388000       5.19884000      -1.20766000       1.80214700      -2.20114300      -1.08791568       1.95030322      -2.05934734
Si       3.54209000       6.47938000       8.21357000      -0.45014500      -1.75854100       4.24377300      -0.57600600      -2.01061322       4.42309160
Si       4.55252000       1.74669000       6.40118000       0.28733400       0.20348600      -1.69136000       0.29406079       0.24169274      -1.67706866
Si       5.87020000       3.30923000       5.41310000       1.93974000       0.55942400      -1.14043100       1.69613635       0.81937423      -1.27593570
Si       6.68392000       0.09389000       2.07850000      -2.78148600      -1.30329400       2.70552900      -2.57384486      -1.24058079       2.86382445
Si       7.30980000       7.36953000       0.08595000       4.18267400      -0.22507900      -1.67891000       4.46315713      -0.36282491      -1.76209144
Si       8.41387000       7.50606000       2.97540000       5.08859000       1.78741200      -0.88875800       5.04147304       1.89867840      -0.92497435
54
Lattice="8.579999685 0.0 0.0 0.0 8.579999685 0.0 0.0 0.0 8.5799996" Properties=species:S:1:pos:R:3:REF_forces:R:3:MACE_forces:R:3 config_type=Fe34B10Si10 REF_energy=-359.84864784 MACE_energy=-360.3957914470833 pbc="T T T"
Fe       0.39531000       2.37288000       0.87042000       3.27925500       2.43832800      -1.60261100       3.18182020       2.59629461      -1.70061657
Fe       0.75383000       1.65209000       3.11094000       1.30783500      -0.34615400      -0.09267000       1.39016255      -0.67025819       0.04505074
Fe       1.33201000       3.79282000       7.26231000      -2.40668100      -1.18131200       0.32245500      -2.55059921      -1.18636413       0.20523439
Fe       0.64436000       4.41396000       2.97573000       2.42004200      -2.26182600       0.38963900       2.46466687      -2.06077305       0.21273761
Fe       0.14751000       6.42079000       3.51005000      -3.07002100       1.32407200      -2.30638400      -3.19083634       1.33378636      -2.49428483